  <PP_INFO>

############################################################
#    Opium Parameter File                                  #
############################################################
#-----------------------------------------------------------
#Command line   : opium Au Au.log ae ps nl tc ke rpt upf plot vi 
 
#Opium version  : 4.1 
#Compile Host   : rainfall 
#Compile OS     : Linux 5.14.0-1054-oem x86_64 
#Compile Date   : Thu Dec  1 15:34:46 CST 2022 
#-----------------------------------------------------------
#Execution Host : rainfall 
#Execution Date : Wed Jan  4 17:00:01 2023
 
#-----------------------------------------------------------
############################################################
[Atom]
Au              # chemical symbol (max. 2 characters)
15              # norb: number of orbitals
# reference configuration
100 2.00 -643.0 # nlm occ eigen(- means auto-generate)
200 2.00 -77.4
210 6.00 -68.4
300 2.00 -10.0
310 6.00  -6.0
320 10.0  -6.4
400 2.00  -6.4
410 6.00  -6.0
500 2.00  -2.4
510 6.00  -2.0
420 10.0  -6.0
430 14.0  -6.4
600 1.00  -1.0
610 0.00  -1.0
520 9.50  -1.0

[Pseudo]
3 2.08 2.20 2.07
opt

[Optinfo]
7.07 10    # rc[a.u.] qc[sqrt(Ry)] Nb
7.07 10
7.07 10

[XC]
gga

[Configs]
5
#
600 1.00 -1.0
610 0.00 -1.0
520 8.50 -1.0               # number of valence configurations
#
600 0.00 -1.0   # nlm occ eigen(- means auto-generate)
610 0.00 -1.0
520 9.00 -1.0
#
600 1.00 -1.0
610 0.00 -1.0
520 9.00 -1.0
#
600 0.00 -1.0   # nlm occ eigen(- means auto-generate)
610 0.00 -1.0
520 8.50 -1.0
#
600 0.00 -1.0
610 0.00 -1.0
520 10.0 -1.0

[Relativity]
srl              # nrl / srl / frl


[KBdesign]
s    # local orbital
1    # number of boxes
au 0.0 1.88  -1.81############################################################
  </PP_INFO>



<PP_HEADER>
   0         Version Number
   Au        Element
   NC        Norm - Conserving pseudopotential
    F      Nonlinear Core Correction
SLA  PW   PBE  PBE     PBE  Exchange-Correlation functional
 11          Z valence
 0          Total energy
 0.000000   0.000000     Suggested cutoff for wfc and rho
 2           Max angular momentum component
 1188           Number of points in mesh
 3  3     Number of Wavefuncitons, Number of Projectors
 Wavefunctions         nl  l   occ
                       S  0  1.000000
                       P  1  0.000000
                       D  2  9.500000
</PP_HEADER>
<PP_MESH>
  <PP_R>
 2.3305457683800569e-05  2.3610406506352742e-05  2.3919345543799539e-05  2.4232327007573595e-05 
 2.4549403792287216e-05  2.4870629484671712e-05  2.5196058372633598e-05  2.5525745454429519e-05 
 2.5859746447960975e-05  2.6198117800190835e-05  2.6540916696682985e-05  2.6888201071266822e-05 
 2.7240029615828229e-05  2.7596461790228613e-05  2.7957557832353813e-05  2.8323378768294361e-05 
 2.8693986422659119e-05  2.9069443429023771e-05  2.9449813240516021e-05  2.9835160140539326e-05 
 3.0225549253636940e-05  3.0621046556498156e-05  3.1021718889108473e-05  3.1427633966045773e-05 
 3.1838860387924110e-05  3.2255467652987572e-05  3.2677526168855528e-05  3.3105107264421692e-05 
 3.3538283201908901e-05  3.3977127189081590e-05  3.4421713391618085e-05  3.4872116945644772e-05 
 3.5328413970434312e-05  3.5790681581269866e-05  3.6258997902477953e-05  3.6733442080631470e-05 
 3.7214094297925757e-05  3.7701035785729540e-05  3.8194348838313237e-05  3.8694116826756845e-05 
 3.9200424213039910e-05  3.9713356564315824e-05  4.0233000567372693e-05  4.0759444043283887e-05 
 4.1292775962249815e-05  4.1833086458634168e-05  4.2380466846196816e-05  4.2935009633526088e-05 
 4.3496808539672902e-05  4.4065958509989572e-05  4.4642555732175634e-05  4.5226697652534034e-05 
 4.5818482992439623e-05  4.6418011765023372e-05  4.7025385292074752e-05  4.7640706221165469e-05 
 4.8264078542997055e-05  4.8895607608975577e-05  4.9535400149016284e-05  5.0183564289581279e-05 
 5.0840209571952892e-05  5.1505446970746801e-05  5.2179388912666689e-05  5.2862149295504842e-05 
 5.3553843507390936e-05  5.4254588446293116e-05  5.4964502539773898e-05  5.5683705765004763e-05 
 5.6412319669042506e-05  5.7150467389371062e-05  5.7898273674712077e-05  5.8655864906107617e-05 
 5.9423369118278894e-05  6.0200916021264557e-05  6.0988637022341817e-05  6.1786665248234694e-05 
 6.2595135567612779e-05  6.3414184613884238e-05  6.4243950808287424e-05  6.5084574383283966e-05 
 6.5936197406258847e-05  6.6798963803529952e-05  6.7673019384671820e-05  6.8558511867158051e-05 
 6.9455590901325691e-05  7.0364408095666749e-05  7.1285117042450038e-05  7.2217873343678968e-05 
 7.3162834637388501e-05  7.4120160624286348e-05  7.5090013094742902e-05  7.6072555956133912e-05 
 7.7067955260541593e-05  7.8076379232817474e-05  7.9097998299013054e-05  8.0132985115182040e-05 
 8.1181514596559816e-05  8.2243763947124207e-05  8.3319912689543767e-05  8.4410142695517322e-05 
 8.5514638216510735e-05  8.6633585914895820e-05  8.7767174895496863e-05  8.8915596737549672e-05 
 9.0079045527078800e-05  9.1257717889698829e-05  9.2451813023844388e-05  9.3661532734435270e-05 
 9.4887081466981776e-05  9.6128666342136632e-05  9.7386497190698828e-05  9.8660786589075525e-05 
 9.9951749895208015e-05  1.0125960528496760e-04  1.0258457378902814e-04  1.0392687933022011e-04 
 1.0528674876137490e-04  1.0666441190366307e-04  1.0806010158543450e-04  1.0947405368156741e-04 
 1.1090650715333135e-04  1.1235770408877251e-04  1.1382788974362676e-04  1.1531731258276910e-04 
 1.1682622432220427e-04  1.1835487997160762e-04  1.1990353787742223e-04  1.2147245976652012e-04 
 1.2306191079043479e-04  1.2467215957017228e-04  1.2630347824160894e-04  1.2795614250148292e-04 
 1.2963043165398774e-04  1.3132662865797498e-04  1.3304502017477549e-04  1.3478589661664552e-04 
 1.3654955219584729e-04  1.3833628497437127e-04  1.4014639691430967e-04  1.4198019392888870e-04 
 1.4383798593416817e-04  1.4572008690141885e-04  1.4762681491018372e-04  1.4955849220203460e-04 
 1.5151544523503126e-04  1.5349800473889400e-04  1.5550650577089784e-04  1.5754128777249740e-04 
 1.5960269462669401e-04  1.6169107471615242e-04  1.6380678098207839e-04  1.6595017098386619e-04 
 1.6812160695952772e-04  1.7032145588691109e-04  1.7255008954572090e-04  1.7480788458034996e-04 
 1.7709522256353271e-04  1.7941249006083235e-04  1.8176007869597139e-04  1.8413838521701668e-04 
 1.8654781156343073e-04  1.8898876493400092e-04  1.9146165785565640e-04  1.9396690825318686e-04 
 1.9650493951987204e-04  1.9907618058903685e-04  2.0168106600654181e-04  2.0432003600422230e-04 
 2.0699353657428898e-04  2.0970201954470150e-04  2.1244594265552801e-04  2.1522576963630522e-04 
 2.1804197028440909e-04  2.2089502054445219e-04  2.2378540258871860e-04  2.2671360489865346e-04 
 2.2968012234741652e-04  2.3268545628351710e-04  2.3573011461554364e-04  2.3881461189800062e-04 
 2.4193946941827025e-04  2.4510521528471087e-04  2.4831238451590890e-04  2.5156151913109751e-04 
 2.5485316824175991e-04  2.5818788814443050e-04  2.6156624241470959e-04  2.6498880200250978e-04 
 2.6845614532854741e-04  2.7196885838209705e-04  2.7552753482002547e-04  2.7913277606712086e-04 
 2.8278519141773433e-04  2.8648539813875363e-04  2.9023402157392131e-04  2.9403169524952006e-04 
 2.9787906098143987e-04  3.0177676898364658e-04  3.0572547797806925e-04  3.0972585530592651e-04 
 3.1377857704050817e-04  3.1788432810143279e-04  3.2204380237040210e-04  3.2625770280846734e-04 
 3.3052674157483218e-04  3.3485164014720889e-04  3.3923312944374959e-04  3.4367194994657402e-04 
 3.4816885182691184e-04  3.5272459507188419e-04  3.5733994961294213e-04  3.6201569545598835e-04 
 3.6675262281319899e-04  3.7155153223657168e-04  3.7641323475322134e-04  3.8133855200244392e-04 
 3.8632831637457754e-04  3.9138337115167724e-04  3.9650457065003195e-04  4.0169278036454565e-04 
 4.0694887711500868e-04  4.1227374919428186e-04  4.1766829651842022e-04  4.2313343077876131e-04 
 4.2867007559600241e-04  4.3427916667629536e-04  4.3996165196938305e-04  4.4571849182880517e-04 
 4.5155065917419916e-04  4.5745913965572797e-04  4.6344493182065544e-04  4.6950904728210456e-04 
 4.7565251089002133e-04  4.8187636090437752e-04  4.8818164917063871e-04  4.9456944129752938e-04 
 5.0104081683712269e-04  5.0759686946728682e-04  5.1423870717652055e-04  5.2096745245120498e-04 
 5.2778424246530662e-04  5.3469022927256284e-04  5.4168658000118010e-04  5.4877447705108410e-04 
 5.5595511829374612e-04  5.6322971727462711e-04  5.7059950341826831e-04  5.7806572223606924e-04 
 5.8562963553678048e-04  5.9329252163975248e-04  6.0105567559097549e-04  6.0892040938194392e-04 
 6.1688805217138723e-04  6.2495995050990095e-04  6.3313746856751604e-04  6.4142198836424731e-04 
 6.4981491000365844e-04  6.5831765190948240e-04  6.6693165106533918e-04  6.7565836325758784e-04 
 6.8449926332135895e-04  6.9345584538980606e-04  7.0252962314661582e-04  7.1172213008182631e-04 
 7.2103491975098767e-04  7.3046956603772003e-04  7.4002766341970088e-04  7.4971082723813704e-04 
 7.5952069397076125e-04  7.6945892150839866e-04  7.7952718943515779e-04  7.8972719931228168e-04 
 8.0006067496571668e-04  8.1052936277744246e-04  8.2113503198061571e-04  8.3187947495857474e-04 
 8.4276450754775531e-04  8.5379196934457283e-04  8.6496372401631669e-04  8.7628165961611663e-04 
 8.8774768890202693e-04  8.9936374966028733e-04  9.1113180503281268e-04  9.2305384384897059e-04 
 9.3513188096169624e-04  9.4736795758800884e-04  9.5976414165398140e-04  9.7232252814422472e-04 
 9.8504523945594632e-04  9.9793442575763836e-04  1.0109922653524649e-03  1.0242209650463947e-03 
 1.0376227605211625e-03  1.0511999167121008e-03  1.0649547281909211e-03  1.0788895195535013e-03 
 1.0930066458127469e-03  1.1073084927965967e-03  1.1217974775512300e-03  1.1364760487495569e-03 
 1.1513466871050447e-03  1.1664119057909696e-03  1.1816742508651468e-03  1.1971363017002187e-03 
 1.2128006714195790e-03  1.2286700073389917e-03  1.2447469914139979e-03  1.2610343406931717e-03 
 1.2775348077773061e-03  1.2942511812846110e-03  1.3111862863219978e-03  1.3283429849625216e-03 
 1.3457241767290892e-03  1.3633327990844773e-03  1.3811718279277748e-03  1.3992442780973152e-03 
 1.4175532038801901e-03  1.4361016995284347e-03  1.4548928997819607e-03  1.4739299803983369e-03 
 1.4932161586894950e-03  1.5127546940654707e-03  1.5325488885852459e-03  1.5526020875148065e-03 
 1.5729176798925007e-03  1.5934990991017925e-03  1.6143498234515150e-03  1.6354733767637093e-03 
 1.6568733289691624e-03  1.6785532967107295e-03  1.7005169439545595e-03  1.7227679826093128e-03 
 1.7453101731534817e-03  1.7681473252709203e-03  1.7912832984946915e-03  1.8147220028593351e-03 
 1.8384673995616770e-03  1.8625235016302762e-03  1.8868943746036355e-03  1.9115841372172940e-03 
 1.9365969620998972e-03  1.9619370764783839e-03  1.9876087628923947e-03  2.0136163599180365e-03 
 2.0399642629011050e-03  2.0666569246999165e-03  2.0936988564378483e-03  2.1210946282657211e-03 
 2.1488488701341818e-03  2.1769662725761633e-03  2.2054515874995995e-03  2.2343096289905127e-03 
 2.2635452741265973e-03  2.2931634638014664e-03  2.3231692035596690e-03  2.3535675644426424e-03 
 2.3843636838457236e-03  2.4155627663863901e-03  2.4471700847838499e-03  2.4791909807501391e-03 
 2.5116308658928899e-03  2.5444952226299010e-03  2.5777896051156807e-03  2.6115196401801139e-03 
 2.6456910282794096e-03  2.6803095444594824e-03  2.7153810393319646e-03  2.7509114400629639e-03 
 2.7869067513747688e-03  2.8233730565606638e-03  2.8603165185130193e-03  2.8977433807648332e-03 
 2.9356599685449055e-03  2.9740726898468198e-03  3.0129880365118958e-03  3.0524125853263456e-03 
 3.0923529991327523e-03  3.1328160279561119e-03  3.1738085101446017e-03  3.2153373735252771e-03 
 3.2574096365748919e-03  3.3000324096060379e-03  3.3432128959688073e-03  3.3869583932681631e-03 
 3.4312762945972676e-03  3.4761740897869312e-03  3.5216593666713976e-03  3.5677398123707222e-03 
 3.6144232145899030e-03  3.6617174629350268e-03  3.7096305502466276e-03  3.7581705739505042e-03 
 3.8073457374261841e-03  3.8571643513933408e-03  3.9076348353163067e-03  3.9587657188269896e-03 
 4.0105656431663993e-03  4.0630433626450396e-03  4.1162077461224010e-03  4.1700677785058322e-03 
 4.2246325622689986e-03  4.2799113189902179e-03  4.3359133909109514e-03  4.3926482425146393e-03 
 4.4501254621262436e-03  4.5083547635326737e-03  4.5673459876244627e-03  4.6271091040588847e-03 
 4.6876542129448591e-03  4.7489915465498984e-03  4.8111314710293576e-03  4.8740844881783787e-03 
 4.9378612372066961e-03  5.0024724965366876e-03  5.0679291856249647e-03  5.1342423668077715e-03 
 5.2014232471705637e-03  5.2694831804420183e-03  5.3384336689128505e-03  5.4082863653797152e-03 
 5.4790530751145728e-03  5.5507457578598002e-03  5.6233765298494198e-03  5.6969576658567611e-03 
 5.7715016012689453e-03  5.8470209341884736e-03  5.9235284275623579e-03  6.0010370113390736e-03 
 6.0795597846537517e-03  6.1591100180419748e-03  6.2397011556825253e-03  6.3213468176694775e-03 
 6.4040608023140351e-03  6.4878570884764663e-03  6.5727498379285782e-03  6.6587533977470782e-03 
 6.7458823027382840e-03  6.8341512778944975e-03  6.9235752408826181e-03  7.0141693045652253e-03 
 7.1059487795547046e-03  7.1989291768007752e-03  7.2931262102118718e-03  7.3885557993108421e-03 
 7.4852340719253714e-03  7.5831773669136453e-03  7.6824022369256176e-03  7.7829254512004863e-03 
 7.8847639984007279e-03  7.9879350894832002e-03  8.0924561606078513e-03  8.1983448760844773e-03 
 8.3056191313580097e-03  8.4142970560329242e-03  8.5243970169371526e-03  8.6359376212261293e-03 
 8.7489377195274567e-03  8.8634164091267020e-03  8.9793930371948813e-03  9.0968872040581711e-03 
 9.2159187665104177e-03  9.3365078411689791e-03  9.4586748078744915e-03  9.5824403131351057e-03 
 9.7078252736157652e-03  9.8348508796732310e-03  9.9635385989372584e-03  1.0093910179938688e-02 
 1.0225987655785014e-02  1.0359793347884004e-02  1.0495349869716099e-02  1.0632680130656122e-02 
 1.0771807339845046e-02  1.0912755010112336e-02  1.1055546961949747e-02  1.1200207327536998e-02 
 1.1346760554820182e-02  1.1495231411643518e-02  1.1645644989935184e-02  1.1798026709947909e-02 
 1.1952402324555064e-02  1.2108797923602949e-02  1.2267239938320027e-02  1.2427755145783898e-02 
 1.2590370673446665e-02  1.2755114003719543e-02  1.2922012978617456e-02  1.3091095804464397e-02 
 1.3262391056660367e-02  1.3435927684510685e-02  1.3611735016118509e-02  1.3789842763341283e-02 
 1.3970281026812231e-02  1.4153080301027321e-02  1.4338271479498992e-02  1.4525885859977168e-02 
 1.4715955149738695e-02  1.4908511470945929e-02  1.5103587366075448e-02  1.5301215803417844e-02 
 1.5501430182649382e-02  1.5704264340476688e-02  1.5909752556355204e-02  1.6117929558282496e-02 
 1.6328830528667366e-02  1.6542491110275784e-02  1.6758947412254557e-02  1.6978236016233925e-02 
 1.7200393982509898e-02  1.7425458856307498e-02  1.7653468674126087e-02  1.7884461970167576e-02 
 1.8118477782848766e-02  1.8355555661398990e-02  1.8595735672543991e-02  1.8839058407277294e-02 
 1.9085564987720217e-02  1.9335297074071566e-02  1.9588296871648297e-02  1.9844607138018378e-02 
 2.0104271190226869e-02  2.0367332912116620e-02  2.0633836761744736e-02  2.0903827778896118e-02 
 2.1177351592695272e-02  2.1454454429317722e-02  2.1735183119802437e-02  2.2019585107966210e-02 
 2.2307708458421980e-02  2.2599601864701720e-02  2.2895314657485830e-02  2.3194896812940128e-02 
 2.3498398961161907e-02  2.3805872394736586e-02  2.4117369077406255e-02  2.4432941652851696e-02 
 2.4752643453589216e-02  2.5076528509984077e-02  2.5404651559381687e-02  2.5737068055358366e-02 
 2.6073834177093105e-02  2.6415006838862026e-02  2.6760643699656982e-02  2.7110803172930107e-02 
 2.7465544436465813e-02  2.7824927442381908e-02  2.8189012927261788e-02  2.8557862422418950e-02 
 2.8931538264295977e-02  2.9310103604999534e-02  2.9693622422973211e-02  3.0082159533810066e-02 
 3.0475780601206589e-02  3.0874552148060043e-02  3.1278541567710927e-02  3.1687817135332690e-02 
 3.2102448019470403e-02  3.2522504293730339e-02  3.2948056948622621e-02  3.3379177903558779e-02 
 3.3815940019006327e-02  3.4258417108802279e-02  3.4706683952627992e-02  3.5160816308646953e-02 
 3.5620890926308199e-02  3.6086985559317171e-02  3.6559178978776183e-02  3.7037550986496977e-02 
 3.7522182428487469e-02  3.8013155208614778e-02  3.8510552302447348e-02  3.9014457771277884e-02 
 3.9524956776329938e-02  4.0042135593150396e-02  4.0566081626190249e-02  4.1096883423576147e-02 
 4.1634630692075174e-02  4.2179414312255623e-02  4.2731326353845911e-02  4.3290460091294697e-02 
 4.3856910019534436e-02  4.4430771869951126e-02  4.5012142626563369e-02  4.5601120542412756e-02 
 4.6197805156168892e-02  4.6802297308951669e-02  4.7414699161373648e-02  4.8035114210805467e-02 
 4.8663647308867145e-02  4.9300404679148237e-02  4.9945493935159804e-02  5.0599024098521510e-02 
 5.1261105617386456e-02  5.1931850385107114e-02  5.2611371759145695e-02  5.3299784580231720e-02 
 5.3997205191770453e-02  5.4703751459505158e-02  5.5419542791436786e-02  5.6144700158004011e-02 
 5.6879346112527741e-02  5.7623604811922823e-02  5.8377602037680894e-02  5.9141465217127660e-02 
 5.9915323444958549e-02  6.0699307505055894e-02  6.1493549892591808e-02  6.2298184836420238e-02 
 6.3113348321761631e-02  6.3939178113185322e-02  6.4775813777891572e-02  6.5623396709298967e-02 
 6.6482070150940278e-02  6.7351979220670849e-02  6.8233270935193949e-02  6.9126094234906871e-02 
 7.0030600009072297e-02  7.0946941121318857e-02  7.1875272435475479e-02  7.2815750841743826e-02 
 7.3768535283213074e-02  7.4733786782721315e-02  7.5711668470069465e-02  7.6702345609590161e-02 
 7.7705985628077887e-02  7.8722758143084534e-02  7.9752834991585114e-02  8.0796390259018747e-02 
 8.1853600308709362e-02  8.2924643811671653e-02  8.4009701776806806e-02  8.5108957581493436e-02 
 8.6222597002578880e-02  8.7350808247775899e-02  8.8493781987470169e-02  8.9651711386944041e-02 
 9.0824792139022101e-02  9.2013222497143443e-02  9.3217203308867333e-02  9.4436938049816205e-02 
 9.5672632858064557e-02  9.6924496568976046e-02  9.8192740750497359e-02  9.9477579738913746e-02 
 1.0077923067507226e-01  1.0209791354107919e-01  1.0343385119747746e-01  1.0478726942091064e-01 
 1.0615839694227988e-01  1.0754746548539955e-01  1.0895470980615965e-01  1.1038036773219975e-01 
 1.1182468020310252e-01  1.1328789131111318e-01  1.1477024834239158e-01  1.1627200181880409e-01 
 1.1779340554026284e-01  1.1933471662761735e-01  1.2089619556611017e-01  1.2247810624939821e-01 
 1.2408071602415222e-01  1.2570429573523839e-01  1.2734911977149219e-01  1.2901546611209061e-01 
 1.3070361637353123e-01  1.3241385585722629e-01  1.3414647359771895e-01  1.3590176241153121e-01 
 1.3768001894665041e-01  1.3948154373266330e-01  1.4130664123154665e-01  1.4315561988912151e-01 
 1.4502879218718193e-01  1.4692647469630452e-01  1.4884898812935027e-01  1.5079665739566461e-01 
 1.5276981165598943e-01  1.5476878437809111e-01  1.5679391339311730e-01  1.5884554095269160e-01 
 1.6092401378675472e-01  1.6302968316216249e-01  1.6516290494205108e-01  1.6732403964597856e-01 
 1.6951345251085362e-01  1.7173151355266145e-01  1.7397859762899723e-01  1.7625508450241831e-01 
 1.7856135890462435e-01  1.8089781060147864e-01  1.8326483445887884e-01  1.8566283050949062e-01 
 1.8809220402035440e-01  1.9055336556137487e-01  1.9304673107471065e-01  1.9557272194506797e-01 
 1.9813176507091598e-01  2.0072429293663377e-01  2.0335074368560108e-01  2.0601156119424568e-01 
 2.0870719514705960e-01  2.1143810111259664e-01  2.1420474062046491e-01  2.1700758123932601e-01 
 2.1984709665591554e-01  2.2272376675509728e-01  2.2563807770096478e-01  2.2859052201900423e-01 
 2.3158159867933245e-01  2.3461181318102403e-01  2.3768167763754247e-01  2.4079171086328660e-01 
 2.4394243846127417e-01  2.4713439291196831e-01  2.5036811366326839e-01  2.5364414722167783e-01 
 2.5696304724466534e-01  2.6032537463423411e-01  2.6373169763171572e-01  2.6718259191380400e-01 
 2.7067864068984604e-01  2.7422043480040614e-01  2.7780857281711863e-01  2.8144366114384850e-01 
 2.8512631411917483e-01  2.8885715412021534e-01  2.9263681166781041e-01  2.9646592553308110e-01 
 3.0034514284538505e-01  3.0427511920167982e-01  3.0825651877732380e-01  3.1229001443832166e-01 
 3.1637628785503996e-01  3.2051602961741193e-01  3.2470993935164838e-01  3.2895872583847630e-01 
 3.3326310713292467e-01  3.3762381068567671e-01  3.4204157346601211e-01  3.4651714208635531e-01 
 3.5105127292845528e-01  3.5564473227121629e-01  3.6029829642019995e-01  3.6501275183882348e-01 
 3.6978889528127334e-01  3.7462753392715914e-01  3.7952948551792909e-01  3.8449557849506771e-01 
 3.8952665214010873e-01  3.9462355671647253e-01  3.9978715361316369e-01  4.0501831549034756e-01 
 4.1031792642683196e-01  4.1568688206947907e-01  4.2112608978457072e-01  4.2663646881115691e-01 
 4.3221895041640823e-01  4.3787447805300284e-01  4.4360400751857199e-01  4.4940850711723224e-01 
 4.5528895782323098e-01  4.6124635344673365e-01  4.6728170080177978e-01  4.7339601987643704e-01 
 4.7959034400518252e-01  4.8586572004353556e-01  4.9222320854498347e-01  4.9866388394021410e-01 
 5.0518883471869913e-01  5.1179916361264977e-01  5.1849598778338246e-01  5.2528043901012123e-01 
 5.3215366388127094e-01  5.3911682398819372e-01  5.4617109612152082e-01  5.5331767247003238e-01 
 5.6055776082214115e-01  5.6789258477001048e-01  5.7532338391634508e-01  5.8285141408388697e-01 
 5.9047794752765170e-01  5.9820427314994329e-01  6.0603169671818247e-01  6.1396154108557988e-01 
 6.2199514641470854e-01  6.3013387040399016e-01  6.3837908851714953e-01  6.4673219421567230e-01 
 6.5519459919430245e-01  6.6376773361962316e-01  6.7245304637175707e-01  6.8125200528923091e-01 
 6.9016609741704449e-01  6.9919682925798365e-01  7.0834572702722354e-01  7.1761433691026211e-01 
 7.2700422532423026e-01  7.3651697918261849e-01  7.4615420616347028e-01  7.5591753498108294e-01 
 7.6580861566126557e-01  7.7582911982019231e-01  7.8598074094691706e-01  7.9626519468957158e-01 
 8.0668421914531740e-01  8.1723957515408496e-01  8.2793304659616285e-01  8.3876644069367623e-01 
 8.4974158831601221e-01  8.6086034428924063e-01  8.7212458770958490e-01  8.8353622226099315e-01 
 8.9509717653686494e-01  9.0680940436598922e-01  9.1867488514274576e-01  9.3069562416162654e-01 
 9.4287365295613601e-01  9.5521102964212579e-01  9.6770983926562137e-01  9.8037219415519394e-01 
 9.9320023427895965e-01  1.0061961276062312e+00  1.0193620704739124e+00  1.0327002879576836e+00 
 1.0462130342480469e+00  1.0599025930312858e+00  1.0737712778754178e+00  1.0878214326211904e+00 
 1.1020554317781961e+00  1.1164756809261707e+00  1.1310846171215423e+00  1.1458847093092981e+00 
 1.1608784587402434e+00  1.1760683993937191e+00  1.1914570984058490e+00  1.2070471565033927e+00 
 1.2228412084432765e+00  1.2388419234578649e+00  1.2550520057060821e+00  1.2714741947304085e+00 
 1.2881112659198757e+00  1.3049660309791133e+00  1.3220413384035310e+00  1.3393400739607260e+00 
 1.3568651611781788e+00  1.3746195618373414e+00  1.3926062764741820e+00  1.4108283448862839e+00 
 1.4292888466465803e+00  1.4479909016238048e+00  1.4669376705097628e+00  1.4861323553534906e+00 
 1.5055782001024114e+00  1.5252784911505715e+00  1.5452365578940492e+00  1.5654557732936207e+00 
 1.5859395544448149e+00  1.6066913631554001e+00  1.6277147065304394e+00  1.6490131375650006e+00 
 1.6705902557446211e+00  1.6924497076536291e+00  1.7145951875914247e+00  1.7370304381968249e+00 
 1.7597592510805815e+00  1.7827854674661681e+00  1.8061129788389578e+00  1.8297457276038955e+00 
 1.8536877077517699e+00  1.8779429655342099e+00  1.9025156001475121e+00  1.9274097644254089e+00 
 1.9526296655409203e+00  1.9781795657173515e+00  2.0040637829486476e+00  2.0302866917291285e+00 
 2.0568527237927889e+00  2.0837663688622801e+00  2.1110321754076731e+00  2.1386547514151721e+00 
 2.1666387651658652e+00  2.1949889460246808e+00  2.2237100852396612e+00  2.2528070367516917e+00 
 2.2822847180148318e+00  2.3121481108273754e+00  2.3424022621737843e+00  2.3730522850776454e+00 
 2.4041033594657777e+00  2.4355607330436588e+00  2.4674297221822985e+00  2.4997157128167049e+00 
 2.5324241613561420e+00  2.5655605956062630e+00  2.5991306157033240e+00  2.6331398950606206e+00 
 2.6675941813273099e+00  2.7024992973597768e+00  2.7378611422057064e+00  2.7736856921010440e+00 
 2.8099790014799853e+00  2.8467472039982002e+00  2.8839965135694237e+00  2.9217332254156312e+00 
 2.9599637171309423e+00  2.9986944497594474e+00  3.0379319688871460e+00  3.0776829057481572e+00 
 3.1179539783454291e+00  3.1587519925860690e+00  3.2000838434315892e+00  3.2419565160631607e+00 
 3.2843770870621150e+00  3.3273527256059188e+00  3.3708906946797712e+00  3.4149983523040706e+00 
 3.4596831527779366e+00  3.5049526479390019e+00  3.5508144884396957e+00  3.5972764250402167e+00 
 3.6443463099184350e+00  3.6920320979969286e+00  3.7403418482873749e+00  3.7892837252525586e+00 
 3.8388660001861723e+00  3.8890970526106878e+00  3.9399853716935307e+00  3.9915395576817283e+00 
 4.0437683233554251e+00  4.0966804955003280e+00  4.1502850163994669e+00  4.2045909453444574e+00 
 4.2596074601665430e+00  4.3153438587876751e+00  4.3718095607918794e+00  4.4290141090171860e+00 
 4.4869671711683985e+00  4.5456785414509548e+00  4.6051581422261698e+00  4.6654160256881454e+00 
 4.7264623755626021e+00  4.7883075088279670e+00  4.8509618774589578e+00  4.9144360701929992e+00 
 4.9787408143197442e+00  5.0438869774939858e+00  5.1098855695723637e+00  5.1767477444740191e+00 
 5.2444848020656538e+00  5.3131081900712154e+00  5.3826295060066141e+00  5.4530604991397045e+00 
 5.5244130724759621e+00  5.5966992847701054e+00  5.6699313525640598e+00  5.7441216522515841e+00 
 5.8192827221699019e+00  5.8954272647187240e+00  5.9725681485069702e+00  6.0507184105276037e+00 
 6.1298912583609138e+00  6.2101000724066182e+00  6.2913584081452107e+00  6.3736799984288108e+00 
 6.4570787558021188e+00  6.5415687748536309e+00  6.6271643345976603e+00  6.7138799008875276e+00 
 6.8017301288603296e+00  6.8907298654136833e+00  6.9808941517148968e+00  7.0722382257429519e+00 
 7.1647775248637702e+00  7.2585276884391536e+00  7.3535045604698821e+00  7.4497241922733810e+00 
 7.5472028451964386e+00  7.6459569933634075e+00  7.7460033264603725e+00  7.8473587525557456e+00 
 7.9500404009577883e+00  8.0540656251094447e+00  8.1594520055211994e+00  8.2662173527421707e+00 
 8.3743797103701549e+00  8.4839573581010246e+00  8.5949688148180527e+00  8.7074328417216424e+00 
 8.8213684455000134e+00  8.9367948815413882e+00  9.0537316571881785e+00  9.1721985350337878e+00 
 9.2922155362625425e+00  9.4138029440332911e+00  9.5369813069073501e+00  9.6617714423212107e+00 
 9.7881944401047765e+00  9.9162716660455654e+00  1.0046024765499622e+01  1.0177475667049542e+01 
 1.0310646586210570e+01  1.0445560029185001e+01  1.0582238796665813e+01  1.0720705987690007e+01 
 1.0860985003542446e+01  1.1003099551710672e+01  1.1147073649891581e+01  1.1292931630050434e+01 
 1.1440698142533035e+01  1.1590398160231697e+01  1.1742056982805703e+01  1.1895700240957037e+01 
 1.2051353900762006e+01  1.2209044268059595e+01  1.2368797992897191e+01  1.2530642074034523e+01 
 1.2694603863506531e+01  1.2860711071245833e+01  1.3028991769765911e+01  1.3199474398905345e+01 
 1.3372187770634216e+01  1.3547161073923425e+01  1.3724423879677682e+01  1.3904006145733060e+01 
 1.4085938221919948e+01  1.4270250855192236e+01  1.4456975194823627e+01  1.4646142797671938e+01 
 1.4837785633512306e+01  1.5031936090440093e+01  1.5228626980344629e+01  1.5427891544454447e+01 
 1.5629763458955152e+01  1.5834276840680801e+01  1.6041466252879605e+01  1.6251366711055386e+01 
 1.6464013688885164e+01  1.6679443124214302e+01  1.6897691425130130e+01  1.7118795476114936e+01 
 1.7342792644279605e+01  1.7569720785678673e+01  1.7799618251708161e+01  1.8032523895586998e+01 
 1.8268477078923340e+01  1.8507517678366767e+01  1.8749686092347513e+01  1.8995023247903937e+01 
 1.9243570607599249e+01  1.9495370176528809e+01  1.9750464509419068e+01  2.0008896717819464e+01 
 2.0270710477388253e+01  2.0535950035273967e+01  2.0804660217593192e+01  2.1076886437006298e+01 
 2.1352674700392285e+01  2.1632071616624067e+01  2.1915124404445486e+01  2.2201880900451368e+01 
 2.2492389567172047e+01  2.2786699501263648e+01  2.3084860441805510e+01  2.3386922778706239e+01 
 2.3692937561219704e+01  2.4002956506572509e+01  2.4317032008704270e+01  2.4635217147122400e+01 
 2.4957565695872592e+01  2.5284132132626848e+01  2.5614971647890162e+01  2.5950140154328064e+01 
 2.6289694296215909e+01  2.6633691459011821e+01  2.6982189779055073e+01  2.7335248153391202e+01 
 2.7692926249725790e+01  2.8055284516508429e+01  2.8422384193148641e+01  2.8794287320365530e+01 
 2.9171056750672740e+01  2.9552756159000758e+01  2.9939450053458064e+01  3.0331203786233189e+01 
 3.0728083564639391e+01  3.1130156462303827e+01  3.1537490430503176e+01  3.1950154309647615e+01 
 3.2368217840914788e+01  3.2791751678036555e+01  3.3220827399239461e+01  3.3655517519341622e+01 
 3.4095895502007942e+01  3.4542035772165626e+01  3.4994013728582189e+01  3.5451905756608021e+01 
 3.5915789241085690e+01  3.6385742579428154e+01  3.6861845194868131e+01  3.7344177549880790e+01 
 3.7832821159782135e+01  3.8327858606505274e+01  3.8829373552556909e+01  3.9337450755156588e+01 
 3.9852176080560838e+01  4.0373636518574799e+01  4.0901920197253496e+01  4.1437116397796053e+01 
 4.1979315569634174e+01  4.2528609345718415e+01  4.3085090558004275e+01  4.3648853253141127e+01 
 4.4219992708366242e+01  4.4798605447606938e+01  4.5384789257793287e+01  4.5978643205384401e+01 
 4.6580267653110852e+01  4.7189764276936209e+01  4.7807236083240568e+01  4.8432787426228849e+01 
 4.9066524025566878e+01  4.9708552984248314e+01  5.0358982806695245e+01  5.1017923417095851e+01 
 5.1685486177981446e+01  5.2361783909047574e+01  5.3046930906220446e+01  5.3741042960973282e+01 
 5.4444237379895419e+01  5.5156633004517325e+01  5.5878350231395096e+01  5.6609511032457853e+01 
 5.7350238975621217e+01  5.8100659245670577e+01  5.8860898665417636e+01  5.9631085717133793e+01 