  <PP_INFO>

############################################################
#    Opium Parameter File                                  #
############################################################
#-----------------------------------------------------------
#Command line   : ./opium_pclinux_static38.exe Cd Cd.log ae ps nl tc ke rpt upf 
 
#Opium version  : 3.8 
#Compile Host   : pzt.wm.edu 
#Compile OS     : Linux 2.6.9-42.ELsmp x86_64 
#Compile Date   : Mon Apr 27 12:45:31 EDT 2009 
#-----------------------------------------------------------
#Execution Host : bohrium-389-1001700 
#Execution Date : Mon Jan  9 10:48:49 2023
 
#-----------------------------------------------------------
############################################################
[Atom]
 Cd
 11
       100 2.00  -13.0   # reference configuration
       200 2.00   -1.4   # reference configuration
       210 6.00   -0.4   # reference configuration
       300 2.00   -0.1   # reference configuration
       310 6.00  -13.0   # reference configuration
       320 10.00   -1.4   # reference configuration
       400 2.00   -0.4   # reference configuration
       410 6.00   -0.1   # reference configuration
       500 1.05   -0.1   # reference configuration
       510 0.00   -0.1
       420 10.0   -1.4   # reference configuration

      [Pseudo]
       3  2.09 2.18 2.06
        opt
 
       [XC]
	 gga

  [Relativity]
  srl              # nrl / srl / frl

      [Optinfo]
       7.07  10    # rc[a.u.]  Qc[sqrt(Ry)]  Nb
       7.07  10    # rc[a.u.]  Qc[sqrt(Ry)]  Nb
       7.07  10    # rc[a.u.]  Qc[sqrt(Ry)]  Nb

      [Configs]
       5                 # number of valence configurations
       #
       500 0.00   -0.4   # test configuration
       510 0.00   -0.4   # test configuration
       420 10.0   -0.4   # test configuration
       #
       500 0.50   -0.4   # test configuration
       510 0.00   -0.4   # test configuration
       420 9.50   -0.4   # test configuration
       #
       500 1.50   -0.4   # test configuration
       510 0.00   -0.4   # test configuration
       420 10.0   -0.4   # test configuration
       #
       500 2.00   -0.4   # test configuration
       510 0.00   -0.4   # test configuration
       420 10.0   -0.4   # test configuration#
       #
       500 0.00   -0.4   # test configuration
       510 0.00   -0.4   # test configuration
       420 9.00   -0.4   # test configuration
       
       [KBdesign]
        0                 # local orbital
        1                 # number of aug. operators
        au 0 1.88 -1.52  # unit(gp or au)  left  right  height(Ry)
############################################################
  </PP_INFO>



<PP_HEADER>
   0         Version Number
   Cd        Element
   NC        Norm - Conserving pseudopotential
    F      Nonlinear Core Correction
SLA  PW   PBE  PBE     PBE  Exchange-Correlation functional
 12          Z valence
 0          Total energy
 0.000000   0.000000     Suggested cutoff for wfc and rho
 2           Max angular momentum component
 1176           Number of points in mesh
 3  3     Number of Wavefuncitons, Number of Projectors
 Wavefunctions         nl  l   occ
                       S  0  1.050000
                       P  1  0.000000
                       D  2  10.000000
</PP_HEADER>
<PP_MESH>
  <PP_R>
 2.7516060407455214e-05  2.7876104408151262e-05  2.8240859536840114e-05  2.8610387438006667e-05 
 2.8984750562745726e-05  2.9364012179316433e-05  2.9748236383834609e-05  3.0137488111105326e-05 
 3.0531833145596962e-05  3.0931338132558925e-05  3.1336070589284858e-05  3.1746098916523265e-05 
 3.2161492410037352e-05  3.2582321272316199e-05  3.3008656624439168e-05  3.3440570518095438e-05 
 3.3878135947761047e-05  3.4321426863035084e-05  3.4770518181137296e-05  3.5225485799569296e-05 
 3.5686406608941500e-05  3.6153358505967715e-05  3.6626420406629923e-05  3.7105672259515319e-05 
 3.7591195059327617e-05  3.8083070860575628e-05  3.8581382791440468e-05  3.9086215067824496e-05 
 3.9597653007583947e-05  4.0115783044947932e-05  4.0640692745125943e-05  4.1172470819106675e-05 
 4.1711207138650329e-05  4.2256992751477091e-05  4.2809919896654580e-05  4.3370082020186358e-05 
 4.3937573790804532e-05  4.4512491115969036e-05  4.5094931158076161e-05  4.5684992350879311e-05 
 4.6282774416124497e-05  4.6888378380403455e-05  4.7501906592227584e-05  4.8123462739324919e-05 
 4.8753151866163693e-05  4.9391080391705075e-05  5.0037356127388195e-05  5.0692088295350600e-05 
 5.1355387546886989e-05  5.2027365981149603e-05  5.2708137164093232e-05  5.3397816147668027e-05 
 5.4096519489263725e-05  5.4804365271408056e-05  5.5521473121722958e-05  5.6247964233141911e-05 
 5.6983961384391861e-05  5.7729588960743113e-05  5.8484972975030769e-05  5.9250241088951073e-05 
 6.0025522634636702e-05  6.0810948636514132e-05  6.1606651833447088e-05  6.2412766701169686e-05 
 6.3229429475013198e-05  6.4056778172930144e-05  6.4894952618819662e-05  6.5744094466157986e-05 
 6.6604347221938499e-05  6.7475856270924215e-05  6.8358768900218803e-05  6.9253234324158014e-05 
 7.0159403709527387e-05  7.1077430201109854e-05  7.2007468947567468e-05  7.2949677127661961e-05 
 7.3904213976818363e-05  7.4871240814035998e-05  7.5850921069151980e-05  7.6843420310461168e-05 
 7.7848906272697611e-05  7.8867548885382067e-05  7.9899520301540528e-05  8.0944994926798584e-05 
 8.2004149448856159e-05  8.3077162867348383e-05  8.4164216524096913e-05  8.5265494133757028e-05 
 8.6381181814865814e-05  8.7511468121296903e-05  8.8656544074126233e-05  8.9816603193915222e-05 
 9.0991841533416204e-05  9.2182457710705728e-05  9.3388652942751605e-05  9.4610631079418761e-05 
 9.5848598637920764e-05  9.7102764837721537e-05  9.8373341635893865e-05  9.9660543762940712e-05 
 1.0096458875908522e-04  1.0228569701103556e-04  1.0362409178923058e-04  1.0497999928557330e-04 
 1.0635364865165789e-04  1.0774527203749667e-04  1.0915510463075383e-04  1.1058338469649334e-04 
 1.1203035361744571e-04  1.1349625593480248e-04  1.1498133938954432e-04  1.1648585496430970e-04 
 1.1801005692581175e-04  1.1955420286780952e-04  1.2111855375464250e-04  1.2270337396533390e-04 
 1.2430893133827135e-04  1.2593549721647221e-04  1.2758334649344140e-04  1.2925275765962864e-04 
 1.3094401284949442e-04  1.3265739788919119e-04  1.3439320234486866e-04  1.3615171957161135e-04 
 1.3793324676301581e-04  1.3973808500141770e-04  1.4156653930877494e-04  1.4341891869821746e-04 
 1.4529553622627089e-04  1.4719670904576396e-04  1.4912275845942833e-04  1.5107400997419881e-04 
 1.5305079335622566e-04  1.5505344268660541e-04  1.5708229641784137e-04  1.5913769743104307e-04 
 1.6121999309387367e-04  1.6332953531925638e-04  1.6546668062484809e-04  1.6763179019329210e-04 
 1.6982522993325868e-04  1.7204737054128457e-04  1.7429858756442122e-04  1.7657926146370375e-04 
 1.7888977767844933e-04  1.8123052669139755e-04  1.8360190409470286e-04  1.8600431065679039e-04 
 1.8843815239008742e-04  1.9090384061963919e-04  1.9340179205262528e-04  1.9593242884878329e-04 
 1.9849617869175483e-04  2.0109347486136538e-04  2.0372475630684944e-04  2.0639046772103400e-04 
 2.0909105961549267e-04  2.1182698839668332e-04  2.1459871644308173e-04  2.1740671218332475e-04 
 2.2025145017537593e-04  2.2313341118672633e-04  2.2605308227564638e-04  2.2901095687349922e-04 
 2.3200753486813210e-04  2.3504332268835791e-04  2.3811883338954384e-04  2.4123458674031855e-04 
 2.4439110931041396e-04  2.4758893455965728e-04  2.5082860292812689e-04  2.5411066192748759e-04 
 2.5743566623352205e-04  2.6080417777987178e-04  2.6421676585300548e-04  2.6767400718842978e-04 
 2.7117648606815890e-04  2.7472479441945991e-04  2.7831953191488965e-04  2.8196130607364007e-04 
 2.8565073236421217e-04  2.8938843430843022e-04  2.9317504358681912e-04  2.9701120014535891e-04 
 3.0089755230363859e-04  3.0483475686442294e-04  3.0882347922465351e-04  3.1286439348790290e-04 
 3.1695818257829916e-04  3.2110553835594237e-04  3.2530716173382994e-04  3.2956376279631310e-04 
 3.3387606091910238e-04  3.3824478489084434e-04  3.4267067303628821e-04  3.4715447334106460e-04 
 3.5169694357809703e-04  3.5629885143566672e-04  3.6096097464715466e-04  3.6568410112248014e-04 
 3.7046902908125911e-04  3.7531656718770462e-04  3.8022753468729457e-04  3.8520276154522490e-04 
 3.9024308858667632e-04  3.9534936763891538e-04  4.0052246167525488e-04  4.0576324496089988e-04 
 4.1107260320069898e-04  4.1645143368883173e-04  4.2190064546045240e-04  4.2742115944532032e-04 
 4.3301390862343804e-04  4.3867983818272823e-04  4.4441990567877193e-04  4.5023508119663752e-04 
 4.5612634751482855e-04  4.6209470027137417e-04  4.6814114813209599e-04  4.7426671296107314e-04 
 4.8047242999334146e-04  4.8675934800984953e-04  4.9312852951470542e-04  4.9958105091474326e-04 
 5.0611800270143668e-04  5.1274048963519646e-04  5.1944963093207661e-04  5.2624656045292481e-04 
 5.3313242689500715e-04  5.4010839398614143e-04  5.4717564068136940e-04  5.5433536136220371e-04 
 5.6158876603848028e-04  5.6893708055285252e-04  5.7638154678796370e-04  5.8392342287632573e-04 
 5.9156398341294854e-04  5.9930451967074713e-04  6.0714633981877298e-04  6.1509076914329516e-04 
 6.2313915027177819e-04  6.3129284339978880e-04  6.3955322652087178e-04  6.4792169565943520e-04 
 6.5639966510668165e-04  6.6498856765962583e-04  6.7368985486324139e-04  6.8250499725577591e-04 
 6.9143548461727460e-04  7.0048282622135695e-04  7.0964855109028788e-04  7.1893420825338498e-04 
 7.2834136700880971e-04  7.3787161718878204e-04  7.4752656942826548e-04  7.5730785543716742e-04 
 7.6721712827610420e-04  7.7725606263577074e-04  7.8742635511996732e-04  7.9772972453233013e-04 
 8.0816791216681272e-04  8.1874268210196932e-04  8.2945582149908804e-04  8.4030914090422537e-04 
 8.5130447455419227e-04  8.6244368068654571e-04  8.7372864185363463e-04  8.8516126524075566e-04 
 8.9674348298847222e-04  9.0847725251914956e-04  9.2036455686776632e-04  9.3240740501705039e-04 
 9.4460783223700292e-04  9.5696790042886068e-04  9.6948969847356732e-04  9.8217534258479545e-04 
 9.9502697666659242e-04  1.0080467726757069e-03  1.0212369309886523e-03  1.0345996807735772e-03 
 1.0481372803670000e-03  1.0618520176554739e-03  1.0757462104622414e-03  1.0898222069389569e-03 
 1.1040823859625277e-03  1.1185291575371490e-03  1.1331649632016019e-03  1.1479922764418779e-03 
 1.1630136031092048e-03  1.1782314818435426e-03  1.1936484845026171e-03  1.2092672165965707e-03 
 1.2250903177283025e-03  1.2411204620395638e-03  1.2573603586628962e-03  1.2738127521794826e-03 
 1.2904804230829843e-03  1.3073661882494559e-03  1.3244729014133992e-03  1.3418034536500556e-03 
 1.3593607738640002e-03  1.3771478292841381e-03  1.3951676259651698e-03  1.4134232092956238e-03 
 1.4319176645125333e-03  1.4506541172228475e-03  1.4696357339316693e-03  1.4888657225774005e-03 
 1.5083473330738924e-03  1.5280838578596858e-03  1.5480786324544467e-03  1.5683350360226674e-03 
 1.5888564919447660e-03  1.6096464683956343e-03  1.6307084789307766e-03  1.6520460830801017e-03 
 1.6736628869494967e-03  1.6955625438302660e-03  1.7177487548165457e-03  1.7402252694307986e-03 
 1.7629958862574885e-03  1.7860644535850571e-03  1.8094348700562876e-03  1.8331110853271873e-03 
 1.8570971007344889e-03  1.8813969699718860e-03  1.9060147997751146e-03  1.9309547506160048e-03 
 1.9562210374056105e-03  1.9818179302065310e-03  2.0077497549545746e-03  2.0340208941898442e-03 
 2.0606357877973988e-03  2.0875989337576033e-03  2.1149148889063004e-03  2.1425882697049246e-03 
 2.1706237530206966e-03  2.1990260769170250e-03  2.2278000414542457e-03  2.2569505095008514e-03 
 2.2864824075553235e-03  2.3164007265787218e-03  2.3467105228381700e-03  2.3774169187613754e-03 
 2.4085251038023338e-03  2.4400403353183578e-03  2.4719679394585845e-03  2.5043133120641009e-03 
 2.5370819195798637e-03  2.5702792999785359e-03  2.6039110636964179e-03  2.6379828945816246e-03 
 2.6725005508546704e-03  2.7074698660816206e-03  2.7428967501599787e-03  2.7787871903174762e-03 
 2.8151472521239164e-03  2.8519830805162887e-03  2.8893009008372633e-03  2.9271070198872966e-03 
 2.9654078269904876e-03  3.0042097950743977e-03  3.0435194817639848e-03  3.0833435304898622e-03 
 3.1236886716110497e-03  3.1645617235524191e-03  3.2059695939570306e-03  3.2479192808535389e-03 
 3.2904178738388744e-03  3.3334725552764013e-03  3.3770906015097566e-03  3.4212793840925695e-03 
 3.4660463710342697e-03  3.5113991280622038e-03  3.5573453199002469e-03  3.6038927115641800e-03 
 3.6510491696739797e-03  3.6988226637833040e-03  3.7472212677263643e-03  3.7962531609824195e-03 
 3.8459266300581302e-03  3.8962500698879986e-03  3.9472319852531332e-03  3.9988809922185667e-03 
 4.0512058195894081e-03  4.1042153103860212e-03  4.1579184233385214e-03  4.2123242344008112e-03 
 4.2674419382844556e-03  4.3232808500125938e-03  4.3798504064942101e-03  4.4371601681189978e-03 
 4.4952198203730628e-03  4.5540391754758285e-03  4.6136281740383044e-03  4.6739968867430736e-03 
 4.7351555160462678e-03  4.7971143979018017e-03  4.8598840035081773e-03  4.9234749410781388e-03 
 4.9878979576314939e-03  5.0531639408113649e-03  5.1192839207242508e-03  5.1862690718041315e-03 
 5.2541307147009686e-03  5.3228803181939307e-03  5.3925295011296370e-03  5.4630900343857732e-03 
 5.5345738428604074e-03  5.6069930074873096e-03  5.6803597672776575e-03  5.7546865213884803e-03 
 5.8299858312181310e-03  5.9062704225291843e-03  5.9835531875991436e-03  6.0618471873992406e-03 
 6.1411656538017910e-03  6.2215219918164031e-03  6.3029297818554620e-03  6.3854027820292305e-03 
 6.4689549304710369e-03  6.5536003476928352e-03  6.6393533389715945e-03  6.7262283967669430e-03 
 6.8142402031704198e-03  6.9034036323867816e-03  6.9937337532477882e-03  7.0852458317588601e-03 
 7.1779553336790659e-03  7.2718779271348918e-03  7.3670294852681735e-03  7.4634260889187105e-03 
 7.5610840293419490e-03  7.6600198109622597e-03  7.7602501541622106e-03  7.8617919981083615e-03 
 7.9646625036140246e-03  8.0688790560394571e-03  8.1744592682300755e-03  8.2814209834930295e-03 
 8.3897822786127736e-03  8.4995614669060981e-03  8.6107771013171092e-03  8.7234479775527233e-03 
 8.8375931372591966e-03  8.9532318712402005e-03  9.0703837227169935e-03  9.1890684906313167e-03 
 9.3093062329914281e-03  9.4311172702619649e-03  9.5545221887981448e-03  9.6795418443249206e-03 
 9.8061973654616375e-03  9.9345101572928113e-03  1.0064501904985671e-02  1.0196194577454956e-02 
 1.0329610431075756e-02  1.0464772013444883e-02  1.0601702167191451e-02  1.0740424033837350e-02 
 1.0880961057708216e-02  1.1023336989895579e-02  1.1167575892270840e-02  1.1313702141551816e-02 
 1.1461740433422407e-02  1.1611715786706299e-02  1.1763653547595154e-02  1.1917579393932183e-02 
 1.2073519339551779e-02  1.2231499738675905e-02  1.2391547290368015e-02  1.2553689043045282e-02 
 1.2717952399049831e-02  1.2884365119279761e-02  1.3052955327880889e-02  1.3223751516999721e-02 
 1.3396782551598737e-02  1.3572077674334613e-02  1.3749666510500308e-02  1.3929579073031812e-02 
 1.4111845767580405e-02  1.4296497397651290e-02  1.4483565169809415e-02  1.4673080698953520e-02 
 1.4865076013659101e-02  1.5059583561591310e-02  1.5256636214988691e-02  1.5456267276218681e-02 
 1.5658510483405757e-02  1.5863400016133303e-02  1.6070970501220010e-02  1.6281257018571877e-02 
 1.6494295107110851e-02  1.6710120770780948e-02  1.6928770484633007e-02  1.7150281200989083e-02 
 1.7374690355687446e-02  1.7602035874409370e-02  1.7832356179088616e-02  1.8065690194404880e-02 
 1.8302077354362071e-02  1.8541557608952864e-02  1.8784171430910272e-02  1.9029959822547647e-02 
 1.9278964322688177e-02  1.9531227013685048e-02  1.9786790528533434e-02  2.0045698058075621e-02 
 2.0307993358300341e-02  2.0573720757737581e-02  2.0842925164950329e-02  2.1115652076124133e-02 
 2.1391947582756091e-02  2.1671858379444440e-02  2.1955431771780040e-02  2.2242715684341118e-02 
 2.2533758668792672e-02  2.2828609912091787e-02  2.3127319244800326e-02  2.3429937149506502e-02 
 2.3736514769356454e-02  2.4047103916697635e-02  2.4361757081835165e-02  2.4680527441902869e-02 
 2.5003468869850293e-02  2.5330635943547401e-02  2.5662083955008356e-02  2.5997868919735923e-02 
 2.6338047586188375e-02  2.6682677445369982e-02  2.7031816740547217e-02  2.7385524477091947e-02 
 2.7743860432453499e-02  2.8106885166261208e-02  2.8474660030559120e-02  2.8847247180174670e-02 
 2.9224709583222888e-02  2.9607111031748293e-02  2.9994516152505857e-02  3.0386990417883047e-02 
 3.0784600156964839e-02  3.1187412566743473e-02  3.1595495723474962e-02  3.2008918594184040e-02 
 3.2427751048319894e-02  3.2852063869564074e-02  3.3281928767793297e-02  3.3717418391198482e-02 
 3.4158606338562499e-02  3.4605567171698527e-02  3.5058376428051159e-02  3.5517110633462468e-02 
 3.5981847315104988e-02  3.6452665014584065e-02  3.6929643301211450e-02  3.7412862785452868e-02 
 3.7902405132551255e-02  3.8398353076328433e-02  3.8900790433167305e-02  3.9409802116177027e-02 
 3.9925474149543533e-02  4.0447893683067795e-02  4.0977149006894420e-02  4.1513329566432770e-02 
 4.2056525977473586e-02  4.2606830041503195e-02  4.3164334761218191e-02  4.3729134356243121e-02 
 4.4301324279053839e-02  4.4881001231109142e-02  4.5468263179193634e-02  4.6063209371974306e-02 
 4.6665940356773704e-02  4.7276557996562850e-02  4.7895165487176199e-02  4.8521867374752004e-02 
 4.9156769573400871e-02  4.9799979383105521e-02  5.0451605507854685e-02  5.1111758074014385e-02 
 5.1780548648939544e-02  5.2458090259829067e-02  5.3144497412827833e-02  5.3839886112378395e-02 
 5.4544373880826086e-02  5.5258079778280532e-02  5.5981124422737082e-02  5.6713630010461563e-02 
 5.7455720336641737e-02  5.8207520816309033e-02  5.8969158505533768e-02  5.9740762122898222e-02 
 6.0522462071250255e-02  6.1314390459741637e-02  6.2116681126154899e-02  6.2929469659522203e-02 
 6.3752893423040163e-02  6.4587091577284678e-02  6.5432205103729366e-02  6.6288376828571485e-02 
 6.7155751446870374e-02  6.8034475547000969e-02  6.8924697635427662e-02  6.9826568161802174e-02 
 7.0740239544390029e-02  7.1665866195829486e-02  7.2603604549227749e-02  7.3553613084598471e-02 
 7.4516052355645165e-02  7.5491085016895373e-02  7.6478875851189509e-02  7.7479591797529626e-02 
 7.8493401979292457e-02  7.9520477732811679e-02  8.0560992636334164e-02  8.1615122539355142e-02 
 8.2683045592337176e-02  8.3764942276817952e-02  8.4860995435912176e-02  8.5971390305212447e-02 
 8.7096314544094680e-02  8.8235958267432371e-02  8.9390514077727370e-02  9.0560177097659580e-02 
 9.1745145003063258e-02  9.2945618056334792e-02  9.4161799140277433e-02  9.5393893792388926e-02 
 9.6642110239598053e-02  9.7906659433455237e-02  9.9187755085783993e-02  1.0048561370479869e-01 
 1.0180045463169501e-01  1.0313250007771900e-01  1.0448197516172146e-01  1.0584910794820344e-01 
 1.0723412948585977e-01  1.0863727384662686e-01  1.1005877816524141e-01  1.1149888267931625e-01 
 1.1295783076994202e-01  1.1443586900281848e-01  1.1593324716992483e-01  1.1745021833173526e-01 
 1.1898703885998661e-01  1.2054396848100601e-01  1.2212127031960496e-01  1.2371921094354837e-01 
 1.2533806040860496e-01  1.2697809230418727e-01  1.2863958379958915e-01  1.3032281569082782e-01 
 1.3202807244809914e-01  1.3375564226385378e-01  1.3550581710150239e-01  1.3727889274475810e-01 
 1.3907516884762491e-01  1.4089494898503921e-01  1.4273854070417549e-01  1.4460625557642232e-01 
 1.4649840925003843e-01  1.4841532150349820e-01  1.5035731629953489e-01  1.5232472183989118e-01 
 1.5431787062078597e-01  1.5633709948910712e-01  1.5838274969933935e-01  1.6045516697123705e-01 
 1.6255470154825172e-01  1.6468170825672393e-01  1.6683654656584998e-01  1.6901958064843270e-01 
 1.7123117944242797e-01  1.7347171671329584e-01  1.7574157111716796e-01  1.7804112626484059e-01 
 1.8037077078660710e-01  1.8273089839793630e-01  1.8512190796601205e-01  1.8754420357714208e-01 
 1.8999819460505005e-01  1.9248429578006029e-01  1.9500292725918866e-01  1.9755451469714960e-01 
 2.0013948931829326e-01  2.0275828798948312e-01  2.0541135329392743e-01  2.0809913360597734e-01 
 2.1082208316690274e-01  2.1358066216166027e-01  2.1637533679666579e-01  2.1920657937858420e-01 
 2.2207486839415080e-01  2.2498068859103529e-01  2.2792453105976754e-01  2.3090689331673123e-01 
 2.3392827938824626e-01  2.3698919989574985e-01  2.4009017214209302e-01  2.4323172019896599e-01 
 2.4641437499546762e-01  2.4963867440783363e-01  2.5290516335033869e-01  2.5621439386738865e-01 
 2.5956692522681729e-01  2.6296332401440375e-01  2.6640416422962671e-01  2.6989002738267215e-01 
 2.7342150259270964e-01  2.7699918668745499e-01  2.8062368430403578e-01  2.8429560799117504e-01 
 2.8801557831271579e-01  2.9178422395249642e-01  2.9560218182059966e-01  2.9947009716099232e-01 
 3.0338862366057306e-01  3.0735842355964665e-01  3.1138016776384464e-01  3.1545453595750966e-01 
 3.1958221671856385e-01  3.2376390763487994e-01  3.2800031542217584e-01  3.3229215604345053e-01 
 3.3664015482998405e-01  3.4104504660391993e-01  3.4550757580245217e-01  3.5002849660363644e-01 
 3.5460857305384907e-01  3.5924857919690983e-01  3.6394929920490121e-01  3.6871152751069275e-01 
 3.7353606894220276e-01  3.7842373885841601e-01  3.8337536328718141e-01  3.8839177906481281e-01 
 3.9347383397751612e-01  3.9862238690466745e-01  4.0383830796396553e-01  4.0912247865848372e-01 
 4.1447579202564627e-01  4.1989915278815371e-01  4.2539347750688289e-01  4.3095969473578838e-01 
 4.3659874517883002e-01  4.4231158184895403e-01  4.4809917022915569e-01  4.5396248843564474e-01 
 4.5990252738315401e-01  4.6592029095240356e-01  4.7201679615975939e-01  4.7819307332911182e-01 
 4.8445016626600274e-01  4.9078913243403077e-01  4.9721104313356590e-01  5.0371698368280082e-01 
 5.1030805360117337e-01  5.1698536679518703e-01  5.2375005174666434e-01  5.3060325170346256e-01 
 5.3754612487268572e-01  5.4457984461642428e-01  5.5170559965005550e-01  5.5892459424314034e-01 
 5.6623804842294800e-01  5.7364719818063947e-01  5.8115329568015917e-01  5.8875760946985001e-01 
 5.9646142469684127e-01  6.0426604332424227e-01  6.1217278435117661e-01  6.2018298403569672e-01 
 6.2829799612061432e-01  6.3651919206228635e-01  6.4484796126239419e-01  6.5328571130275592e-01 
 6.6183386818321099e-01  6.7049387656261772e-01  6.7926720000300367e-01  6.8815532121691181e-01 
 6.9715974231798195e-01  7.0628198507481155e-01  7.1552359116813935e-01  7.2488612245138861e-01 
 7.3437116121463131e-01  7.4398031045199364e-01  7.5371519413256760e-01  7.6357745747486494e-01 
 7.7356876722486378e-01  7.8369081193769219e-01  7.9394530226299809e-01  8.0433397123405281e-01 
 8.1485857456063904e-01  8.2552089092576786e-01  8.3632272228628290e-01  8.4726589417739362e-01 
 8.5835225602119458e-01  8.6958368143922493e-01  8.8096206856911163e-01  8.9248934038536143e-01 
 9.0416744502434898e-01  9.1599835611354985e-01  9.2798407310509912e-01  9.4012662161369454e-01 
 9.5242805375893502e-01  9.6489044851213190e-01  9.7751591204765997e-01  9.9030657809890610e-01 
 1.0032646083188768e+00  1.0163921926455202e+00  1.0296915496718324e+00  1.0431649270208043e+00 
 1.0568146017252764e+00  1.0706428806127610e+00  1.0846521006953032e+00  1.0988446295644396e+00 
 1.1132228657913286e+00  1.1277892393321145e+00  1.1425462119385974e+00  1.1574962775742661e+00 
 1.1726419628357980e+00  1.1879858273800505e+00  1.2035304643566518e+00  1.2192785008462479e+00 
 1.2352325983044876e+00  1.2513954530118143e+00  1.2677697965291419e+00  1.2843583961594980e+00 
 1.3011640554157020e+00  1.3181896144941680e+00  1.3354379507549019e+00  1.3529119792077851e+00 
 1.3706146530052157e+00  1.3885489639411996e+00  1.4067179429569705e+00  1.4251246606532260e+00 
 1.4437722278090688e+00  1.4626637959077264e+00  1.4818025576691738e+00  1.5011917475897008e+00 
 1.5208346424885522e+00  1.5407345620617170e+00  1.5608948694429683e+00  1.5813189717722362e+00 
 1.6020103207714254e+00  1.6229724133277648e+00  1.6442087920847877e+00  1.6657230460410490e+00 
 1.6875188111566732e+00  1.7095997709678412e+00  1.7319696572093148e+00  1.7546322504451133e+00 
 1.7775913807074304e+00  1.8008509281439269e+00  1.8244148236734825e+00  1.8482870496505199e+00 
 1.8724716405380499e+00  1.8969726835894940e+00  1.9217943195394434e+00  1.9469407433034520e+00 
 1.9724162046869855e+00  1.9982250091036526e+00  2.0243715183028272e+00  2.0508601511067948e+00 
 2.0776953841575452e+00  2.1048817526733345e+00  2.1324238512151474e+00  2.1603263344631909e+00 
 2.1885939180035443e+00  2.2172313791251050e+00  2.2462435576269635e+00  2.2756353566363381e+00 
 2.3054117434372206e+00  2.3355777503098429e+00  2.3661384753811681e+00  2.3970990834864723e+00 
 2.4284648070422126e+00  2.4602409469303232e+00  2.4924328733940779e+00  2.5250460269456672e+00 
 2.5580859192856642e+00  2.5915581342345120e+00  2.6254683286762051e+00  2.6598222335143125e+00 
 2.6946256546405185e+00  2.7298844739158281e+00  2.7656046501646192e+00  2.8017922201816940e+00 
 2.8384532997525169e+00  2.8755940846867909e+00  2.9132208518655740e+00  2.9513399603020649e+00 
 2.9899578522163224e+00  3.0290810541239916e+00  3.0687161779393151e+00  3.1088699220925515e+00 
 3.1495490726620319e+00  3.1907605045210246e+00  3.2325111824995996e+00  3.2748081625617065e+00 
 3.3176585929976468e+00  3.3610697156321510e+00  3.4050488670482690e+00  3.4496034798272639e+00 
 3.4947410838047399e+00  3.5404693073431996e+00  3.5867958786212601e+00  3.6337286269397286e+00 
 3.6812754840447837e+00  3.7294444854684268e+00  3.7782437718865522e+00  3.8276815904947115e+00 
 3.8777662964019188e+00  3.9285063540426761e+00  3.9799103386074912e+00  4.0319869374921025e+00 
 4.0847449517656695e+00  4.1381932976581730e+00  4.1923410080672809e+00  4.2471972340849300e+00 
 4.3027712465438785e+00  4.3590724375845058e+00  4.4161103222420985e+00  4.4738945400549204e+00 
 4.5324348566933130e+00  4.5917411656101192e+00  4.6518234897127115e+00  4.7126919830568470e+00 
 4.7743569325627808e+00  4.8368287597537503e+00  4.9001180225172378e+00  4.9642354168892853e+00 
 5.0291917788621481e+00  5.0949980862156012e+00  5.1616654603722134e+00  5.2292051682768923e+00 
 5.2976286243010220e+00  5.3669473921715296e+00  5.4371731869251674e+00  5.5083178768883920e+00 
 5.5803934856831425e+00  5.6534121942588493e+00  5.7273863429510534e+00  5.8023284335669496e+00 
 5.8782511314982324e+00  5.9551672678615333e+00  6.0330898416669791e+00  6.1120320220150015e+00 
 6.1920071503219747e+00  6.2730287425749269e+00  6.3551104916157897e+00  6.4382662694555117e+00 
 6.5225101296184711e+00  6.6078563095175396e+00  6.6943192328602548e+00  6.7819135120864500e+00 
 6.8706539508377977e+00  6.9605555464596591e+00  7.0516334925356654e+00  7.1439031814554816e+00 
 7.2373802070161446e+00  7.3320803670574577e+00  7.4280196661318802e+00  7.5252143182092679e+00 
 7.6236807494171721e+00  7.7234356008168268e+00  7.8244957312155421e+00  7.9268782200158876e+00 
 8.0306003701021549e+00  8.1356797107645757e+00  8.2421340006618191e+00  8.3499812308222534e+00 
 8.4592396276844557e+00  8.5699276561775495e+00  8.6820640228417911e+00  8.7956676789900463e+00 
 8.9107578239105880e+00  9.0273539081118415e+00  9.1454756366095378e+00  9.2651429722569389e+00 
 9.3863761391186049e+00  9.5091956258882480e+00  9.6336221893514740e+00  9.7596768578936501e+00 
 9.8873809350537858e+00  1.0016756003124870e+01  1.0147823926801331e+01  1.0280606856874222e+01 
 1.0415127233974765e+01  1.0551407792366861e+01  1.0689471563789235e+01  1.0829341881347871e+01 
 1.0971042383459332e+01  1.1114597017845739e+01  1.1260030045581980e+01  1.1407366045195888e+01 
 1.1556629916822063e+01  1.1707846886410081e+01  1.1861042509987731e+01  1.2016242677979980e+01 
 1.2173473619584625e+01  1.2332761907205020e+01  1.2494134460940906e+01  1.2657618553137937e+01 
 1.2823241812996805e+01  1.2991032231242627e+01  1.3161018164855442e+01  1.3333228341862609e+01 
 1.3507691866193930e+01  1.3684438222600249e+01  1.3863497281636475e+01  1.4044899304709761e+01 
 1.4228674949193762e+01  1.4414855273609801e+01  1.4603471742875827e+01  1.4794556233624084e+01 
 1.4988141039588315e+01  1.5184258877061437e+01  1.5382942890424788e+01  1.5584226657749516e+01 
 1.5788144196471366e+01  1.5994729969139733e+01  1.6204018889241890e+01  1.6416046327103462e+01 
 1.6630848115866090e+01  1.6848460557543330e+01  1.7068920429155760e+01  1.7292264988946396e+01 
 1.7518531982677434e+01  1.7747759650009339e+01  1.7979986730963478e+01  1.8215252472469263e+01 
 1.8453596634996959e+01  1.8695059499277345e+01  1.8939681873109127e+01  1.9187505098255745e+01 
 1.9438571057432082e+01  1.9692922181382798e+01  1.9950601456053235e+01  2.0211652429854105e+01 
 2.0476119221021310e+01  2.0744046525072008e+01  2.1015479622358281e+01  2.1290464385719613e+01 
 2.1569047288235495e+01  2.1851275411079502e+01  2.2137196451476132e+01  2.2426858730761737e+01 
 2.2720311202550931e+01  2.3017603461009895e+01  2.3318785749237890e+01  2.3623908967758510e+01 
 2.3933024683121840e+01  2.4246185136619520e+01  2.4563443253113565e+01  2.4884852649980754e+01 
 2.5210467646174138e+01  2.5540343271403085e+01  2.5874535275433391e+01  2.6213100137509134e+01 
 2.6556095075897840e+01  2.6903578057560438e+01  2.7255607807947886e+01  2.7612243820925858e+01 
 2.7973546368829386e+01  2.8339576512648978e+01  2.8710396112350150e+01  2.9086067837327832e+01 
 2.9466655176997680e+01  2.9852222451525979e+01  3.0242834822699709e+01  3.0638558304939348e+01 
 3.1039459776455256e+01  3.1445606990550299e+01  3.1857068587070341e+01  3.2273914104004497e+01 
 3.2696213989237258e+01  3.3124039612454361e+01  3.3557463277204384e+01  3.3996558233118279e+01 
 3.4441398688288650e+01  3.4892059821811209e+01  3.5348617796490124e+01  3.5811149771709786e+01 
 3.6279733916474875e+01  3.6754449422621107e+01  3.7235376518198912e+01  3.7722596481032163e+01 
 3.8216191652454071e+01  3.8716245451223479e+01  3.9222842387622542e+01  3.9736068077739283e+01 
 4.0256009257936839e+01  4.0782753799512193e+01  4.1316390723546554e+01  4.1857010215950211e+01 
 4.2404703642704085e+01  4.2959563565300890e+01  4.3521683756388136e+01  4.4091159215616024e+01 