  <PP_INFO>

############################################################
#    Opium Parameter File                                  #
############################################################
#-----------------------------------------------------------
#Command line   : ./opium_pclinux_static38.exe Cr Cr.log ae ps nl tc ke rpt upf 
 
#Opium version  : 3.8 
#Compile Host   : pzt.wm.edu 
#Compile OS     : Linux 2.6.9-42.ELsmp x86_64 
#Compile Date   : Mon Apr 27 12:45:31 EDT 2009 
#-----------------------------------------------------------
#Execution Host : bohrium-389-1001700 
#Execution Date : Mon Jan  9 13:09:05 2023
 
#-----------------------------------------------------------
############################################################
[Atom]
Cr
7                   # norb: number of orbitals
100  2.00  -        # nlm occ eigen(- means auto-generate)
200  2.00  -
210  6.00  -
300  2.00  -
310  6.00  -
320  3.00  -
400  0.00  -

[Pseudo]
4 1.73 1.78 1.95 1.88
opt

[Optinfo]
7.07 10
7.07 10
7.07 10
7.07 10

[Configs]
4
#
300  2.00  -
310  6.00  -
320  3.00  -
400  0.00  -
#
300  2.00  -
310  6.00  -
320  3.05  -
400  1.00  -
#
300  2.00  -
310  6.00  -
320  3.95  -
400  1.50  -
#
300  2.00  -
310  6.00  -
320  4.00  -
400  2.00  -

[XC]
gga               # lda[PZ] or gga[PBE]


[KBdesign]
0                 # local orb
1                # number of aug. operators
au 0.1 1.38 2.85  # unit(gp or au)  left  right  height(Ry)
############################################################
  </PP_INFO>



<PP_HEADER>
   0         Version Number
   Cr        Element
   NC        Norm - Conserving pseudopotential
    F      Nonlinear Core Correction
SLA  PW   PBE  PBE     PBE  Exchange-Correlation functional
 14          Z valence
 0          Total energy
 0.000000   0.000000     Suggested cutoff for wfc and rho
 2           Max angular momentum component
 1158           Number of points in mesh
 3  3     Number of Wavefuncitons, Number of Projectors
 Wavefunctions         nl  l   occ
                       S  0  2.000000
                       P  1  6.000000
                       D  2  3.000000
</PP_HEADER>
<PP_MESH>
  <PP_R>
 3.4668063717531753e-05  3.5121690732897059e-05  3.5581253397589252e-05  3.6046829378792464e-05 
 3.6518497359955634e-05  3.6996337054090228e-05  3.7480429217241780e-05  3.7970855662138106e-05 
 3.8467699272015634e-05  3.8971044014626982e-05  3.9480974956431656e-05  3.9997578276972501e-05 
 4.0520941283440276e-05  4.1051152425428701e-05  4.1588301309882781e-05  4.2132478716242363e-05 
 4.2683776611784360e-05  4.3242288167165298e-05  4.3808107772167294e-05  4.4381331051650327e-05 
 4.4962054881712931e-05  4.5550377406064600e-05  4.6146398052612202e-05  4.6750217550263629e-05 
 4.7361937945951046e-05  4.7981662621877324e-05  4.8609496312987692e-05  4.9245545124670271e-05 
 4.9889916550688078e-05  5.0542719491345759e-05  5.1204064271894054e-05  5.1874062661174933e-05 
 5.2552827890510881e-05  5.3240474672841098e-05  5.3937119222108493e-05  5.4642879272899976e-05 
 5.5357874100343937e-05  5.6082224540267947e-05  5.6816053009620388e-05  5.7559483527159151e-05 
 5.8312641734411196e-05  5.9075654916906018e-05  5.9848652025687599e-05  6.0631763699107083e-05 
 6.1425122284901188e-05  6.2228861862559173e-05  6.3043118265982632e-05  6.3868029106441777e-05 
 6.4703733795831993e-05  6.5550373570234867e-05  6.6408091513787371e-05  6.7277032582863314e-05 
 6.8157343630571648e-05  6.9049173431574612e-05  6.9952672707231212e-05  7.0867994151069475e-05 
 7.1795292454591929e-05  7.2734724333418967e-05  7.3686448553774106e-05  7.4650625959315616e-05 
 7.5627419498319978e-05  7.6616994251220159e-05  7.7619517458504624e-05  7.8635158548981529e-05 
 7.9664089168412510e-05  8.0706483208521193e-05  8.1762516836381344e-05  8.2832368524189540e-05 
 8.3916219079427465e-05  8.5014251675418457e-05  8.6126651882284747e-05  8.7253607698308897e-05 
 8.8395309581706052e-05  8.9551950482811933e-05  9.0723725876691726e-05  9.1910833796175921e-05 
 9.3113474865328416e-05  9.4331852333352147e-05  9.5566172108939147e-05  9.6816642795069332e-05 
 9.8083475724264793e-05  9.9366884994305863e-05  1.0066708750441374e-04  1.0198430299190728e-04 
 1.0331875406933900e-04  1.0467066626211700e-04  1.0604026804661967e-04  1.0742779088880837e-04 
 1.0883346928334572e-04  1.1025754079322617e-04  1.1170024608992425e-04  1.1316182899406896e-04 
 1.1464253651664976e-04  1.1614261890076216e-04  1.1766232966389959e-04  1.1920192564079788e-04 
 1.2076166702684152e-04  1.2234181742203719e-04  1.2394264387556250e-04  1.2556441693089827e-04 
 1.2720741067155083e-04  1.2887190276737284e-04  1.3055817452149013e-04  1.3226651091784264e-04 
 1.3399720066934736e-04  1.3575053626669158e-04  1.3752681402776418e-04  1.3932633414773463e-04 
 1.4114940074978617e-04  1.4299632193651366e-04  1.4486740984199348e-04  1.4676298068453506e-04 
 1.4868335482012257e-04  1.5062885679655529e-04  1.5259981540829788e-04  1.5459656375204679e-04 
 1.5661943928302463e-04  1.5866878387201064e-04  1.6074494386311813e-04  1.6284827013232696e-04 
 1.6497911814678285e-04  1.6713784802487172e-04  1.6932482459708112e-04  1.7154041746765702e-04 
 1.7378500107706758e-04  1.7605895476528529e-04  1.7836266283589568e-04  1.8069651462104569e-04 
 1.8306090454724188e-04  1.8545623220200919e-04  1.8788290240142260e-04  1.9034132525852119e-04 
 1.9283191625261921e-04  1.9535509629952253e-04  1.9791129182266453e-04  2.0050093482517253e-04 
 2.0312446296287762e-04  2.0578231961827936e-04  2.0847495397547839e-04  2.1120282109608982e-04 
 2.1396638199614964e-04  2.1676610372402768e-04  2.1960245943935920e-04  2.2247592849301099e-04 
 2.2538699650809246e-04  2.2833615546202662e-04  2.3132390376969598e-04  2.3435074636767568e-04 
 2.3741719479956916e-04  2.4052376730245950e-04  2.4367098889449369e-04  2.4685939146361168e-04 
 2.5008951385743625e-04  2.5336190197433991e-04  2.5667710885570307e-04  2.6003569477937920e-04 
 2.6343822735438321e-04  2.6688528161681853e-04  2.7037744012705988e-04  2.7391529306820719e-04 
 2.7749943834582818e-04  2.8113048168900480e-04  2.8480903675270468e-04  2.8853572522148879e-04 
 2.9231117691457860e-04  2.9613602989229552e-04  3.0001093056389658e-04  3.0393653379681809e-04 
 3.0791350302734958e-04  3.1194251037275665e-04  3.1602423674487005e-04  3.2015937196516151e-04 
 3.2434861488132540e-04  3.2859267348538541e-04  3.3289226503334677e-04  3.3724811616641439e-04 
 3.4166096303379738e-04  3.4613155141711933e-04  3.5066063685645758e-04  3.5524898477803051e-04 
 3.5989737062355780e-04  3.6460657998131104e-04  3.6937740871888051e-04  3.7421066311767696e-04 
 3.7910716000919806e-04  3.8406772691307230e-04  3.8909320217691326e-04  3.9418443511800148e-04 
 3.9934228616682181e-04  4.0456762701247757e-04  4.0986134075000853e-04  4.1522432202963588e-04 
 4.2065747720796033e-04  4.2616172450113849e-04  4.3173799414006336e-04  4.3738722852757606e-04 
 4.4311038239773422e-04  4.4890842297716288e-04  4.5478233014852016e-04  4.6073309661609849e-04 
 4.6676172807359452e-04  4.7286924337407280e-04  4.7905667470215580e-04  4.8532506774846476e-04 
 4.9167548188634388e-04  4.9810899035089670e-04  5.0462668042036663e-04  5.1122965359988784e-04 
 5.1791902580764361e-04  5.2469592756345816e-04  5.3156150417985797e-04  5.3851691595563193e-04 
 5.4556333837192477e-04  5.5270196229089612e-04  5.5993399415697916e-04  5.6726065620077133e-04 
 5.7468318664559664e-04  5.8220283991676665e-04  5.8982088685358223e-04  5.9753861492410631e-04 
 6.0535732844275221e-04  6.1327834879071406e-04  6.2130301463928330e-04  6.2943268217608773e-04 
 6.3766872533429066e-04  6.4601253602478853e-04  6.5446552437144678e-04  6.6302911894941486e-04 
 6.7170476702655909e-04  6.8049393480805291e-04  6.8939810768417096e-04  6.9841879048132170e-04 
 7.0755750771636866e-04  7.1681580385427447e-04  7.2619524356912256e-04  7.3569741200854891e-04 
 7.4532391506163594e-04  7.5507637963031116e-04  7.6495645390429838e-04  7.7496580763966583e-04 
 7.8510613244101805e-04  7.9537914204738192e-04  8.0578657262183066e-04  8.1633018304490257e-04 
 8.2701175521185356e-04  8.3783309433380418e-04  8.4879602924282048e-04  8.5990241270099529e-04 
 8.7115412171356746e-04  8.8255305784614053e-04  8.9410114754605145e-04  9.0580034246794474e-04 
 9.1765261980360745e-04  9.2965998261611889e-04  9.4182446017837367e-04  9.5414810831603121e-04 
 9.6663300975495926e-04  9.7928127447321611e-04  9.9209504005764288e-04  1.0050764720651219e-03 
 1.0182277643885588e-03  1.0315511396276583e-03  1.0450488494645458e-03  1.0587231750443110e-03 
 1.0725764273605218e-03  1.0866109476457919e-03  1.1008291077674534e-03  1.1152333106284077e-03 
 1.1298259905732219e-03  1.1446096137995370e-03  1.1595866787748664e-03  1.1747597166588371e-03 
 1.1901312917309654e-03  1.2057040018240231e-03  1.2214804787630815e-03  1.2374633888102926e-03 
 1.2536554331154949e-03  1.2700593481727157e-03  1.2866779062826413e-03  1.3035139160211464e-03 
 1.3205702227139483e-03  1.3378497089174745e-03  1.3553552949060188e-03  1.3730899391652793e-03 
 1.3910566388923452e-03  1.4092584305022335e-03  1.4276983901410480e-03  1.4463796342058567e-03 
 1.4653053198713697e-03  1.4844786456235089e-03  1.5039028517999620e-03  1.5235812211378031e-03 
 1.5435170793282875e-03  1.5637137955788977e-03  1.5841747831827518e-03  1.6049035000954527e-03 
 1.6259034495194951e-03  1.6471781804963134e-03  1.6687312885060796e-03  1.6905664160753455e-03 
 1.7126872533926392e-03  1.7350975389321174e-03  1.7578010600853755e-03  1.7808016538015245e-03 
 1.8041032072356469e-03  1.8277096584057315e-03  1.8516249968582121e-03  1.8758532643422087e-03 
 1.9003985554925916e-03  1.9252650185219849e-03  1.9504568559218268e-03  1.9759783251725943e-03 
 2.0018337394633354e-03  2.0280274684206035e-03  2.0545639388469370e-03  2.0814476354689957e-03 
 2.1086831016954954e-03  2.1362749403850520e-03  2.1642278146240743e-03  2.1925464485148421e-03 
 2.2212356279738784e-03  2.2503002015407990e-03  2.2797450811977123e-03  2.3095752431993612e-03 
 2.3397957289141235e-03  2.3704116456760133e-03  2.4014281676478302e-03  2.4328505366956114e-03 
 2.4646840632745158e-03  2.4969341273262985e-03  2.5296061791885431e-03  2.5627057405157787e-03 
 2.5962384052126493e-03  2.6302098403792988e-03  2.6646257872691265e-03  2.6994920622590694e-03 
 2.7348145578325865e-03  2.7705992435755038e-03  2.8068521671848761e-03  2.8435794554910829e-03 
 2.8807873154932614e-03  2.9184820354083117e-03  2.9566699857336148e-03  2.9953576203236680e-03 
 3.0345514774807961e-03  3.0742581810601446e-03  3.1144844415891284e-03  3.1552370574015106e-03 
 3.1965229157863637e-03  3.2383489941520179e-03  3.2807223612052686e-03  3.3236501781459989e-03 
 3.3671396998774454e-03  3.4111982762322890e-03  3.4558333532147979e-03  3.5010524742592202e-03 
 3.5468632815046342e-03  3.5932735170864992e-03  3.6402910244450908e-03  3.6879237496510579e-03 
 3.7361797427483312e-03  3.7850671591145996e-03  3.8345942608395828e-03  3.8847694181213537e-03 
 3.9356011106809188e-03  3.9870979291952956e-03  4.0392685767493847e-03  4.0921218703067952e-03 
 4.1456667421999336e-03  4.1999122416395912e-03  4.2548675362442841e-03  4.3105419135895974e-03 
 4.3669447827778150e-03  4.4240856760280767e-03  4.4819742502873357e-03  4.5406202888624249e-03 
 4.6000337030734475e-03  4.6602245339288145e-03  4.7212029538222016e-03  4.7829792682517044e-03 
 4.8455639175614936e-03  4.9089674787062632e-03  4.9732006670387555e-03  5.0382743381206709e-03 
 5.1041994895573090e-03  5.1709872628561719e-03  5.2386489453099079e-03  5.3071959719038905e-03 
 5.3766399272487664e-03  5.4469925475382694e-03  5.5182657225326765e-03  5.5904714975682024e-03 
 5.6636220755926754e-03  5.7377298192278917e-03  5.8128072528589106e-03  5.8888670647507047e-03 
 5.9659221091925155e-03  6.0439854086702521e-03  6.1230701560673235e-03  6.2031897168942701e-03 
 6.2843576315475685e-03  6.3665876175979736e-03  6.4498935721088455e-03  6.5342895739847742e-03 
 6.6197898863509484e-03  6.7064089589636555e-03  6.7941614306523306e-03  6.8830621317935471e-03 
 6.9731260868173897e-03  7.0643685167466252e-03  7.1568048417690669e-03  7.2504506838436547e-03 
 7.3453218693405849e-03  7.4414344317160113e-03  7.5388046142217313e-03  7.6374488726503416e-03 
 7.7373838781162928e-03  7.8386265198733696e-03  7.9411939081690027e-03  8.0451033771359159e-03 
 8.1503724877216924e-03  8.2570190306565667e-03  8.3650610294601271e-03  8.4745167434873200e-03 
 8.5854046710143340e-03  8.6977435523648405e-03  8.8115523730771684e-03  8.9268503671129026e-03 
 9.0436570201074384e-03  9.1619920726631488e-03  9.2818755236855691e-03  9.4033276337632532e-03 
 9.5263689285918721e-03  9.6510202024431020e-03  9.7773025216789083e-03  9.9052372283118043e-03 
 1.0034845943611715e-02  1.0166150571759992e-02  1.0299173303551320e-02  1.0433936620143976e-02 
 1.0570463296859213e-02  1.0708776407030345e-02  1.0848899325902189e-02  1.0990855734581542e-02 
 1.1134669624039339e-02  1.1280365299165198e-02  1.1427967382874967e-02  1.1577500820272112e-02 
 1.1728990882863452e-02  1.1882463172830128e-02  1.2037943627354428e-02  1.2195458523003218e-02 
 1.2355034480168768e-02  1.2516698467567644e-02  1.2680477806798506e-02  1.2846400176959467e-02 
 1.3014493619326009e-02  1.3184786542089972e-02  1.3357307725160613e-02  1.3532086325028494e-02 
 1.3709151879692976e-02  1.3888534313654236e-02  1.4070263942970557e-02  1.4254371480381845e-02 
 1.4440888040500087e-02  1.4629845145067884e-02  1.4821274728285642e-02  1.5015209142208550e-02 
 1.5211681162214143e-02  1.5410723992541418e-02  1.5612371271902452e-02  1.5816657079167389e-02 
 1.6023615939123891e-02  1.6233282828311851e-02  1.6445693180934581e-02  1.6660882894847222e-02 
 1.6878888337623611e-02  1.7099746352702443e-02  1.7323494265613932e-02  1.7550169890287907e-02 
 1.7779811535444435e-02  1.8012458011068145e-02  1.8248148634967102e-02  1.8486923239417728e-02 
 1.8728822177896478e-02  1.8973886331899708e-02  1.9222157117852707e-02  1.9473676494109221e-02 
 1.9728486968042469e-02  1.9986631603229030e-02  2.0248154026726663e-02  2.0513098436447368e-02 
 2.0781509608626989e-02  2.1053432905392470e-02  2.1328914282428165e-02  2.1608000296742480e-02 
 2.1890738114536068e-02  2.2177175519173090e-02  2.2467360919256676e-02  2.2761343356810130e-02 
 2.3059172515565055e-02  2.3360898729358179e-02  2.3666572990637763e-02  2.3976246959081498e-02 
 2.4289972970327107e-02  2.4607804044817178e-02  2.4929793896759787e-02  2.5255996943206269e-02 
 2.5586468313247887e-02  2.5921263857332694e-02  2.6260440156704503e-02  2.6604054532965188e-02 
 2.6952165057762160e-02  2.7304830562602665e-02  2.7662110648796378e-02  2.8024065697528234e-02 
 2.8390756880062970e-02  2.8762246168083205e-02  2.9138596344162757e-02  2.9519871012377144e-02 
 2.9906134609052767e-02  3.0297452413656820e-02  3.0693890559829646e-02  3.1095516046561508e-02 
 3.1502396749515583e-02  3.1914601432499072e-02  3.2332199759084523e-02  3.2755262304382998e-02 
 3.3183860566971604e-02  3.3618066980976823e-02  3.4057954928316085e-02  3.4503598751099450e-02 
 3.4955073764193663e-02  3.5412456267950476e-02  3.5875823561101652e-02  3.6345253953822605e-02 
 3.6820826780966952e-02  3.7302622415474405e-02  3.7790722281953931e-02  3.8285208870444683e-02 
 3.8786165750357031e-02  3.9293677584596017e-02  3.9807830143869571e-02  4.0328710321183910e-02 
 4.0856406146528787e-02  4.1391006801754608e-02  4.1932602635644529e-02  4.2481285179183509e-02 
 4.3037147161027356e-02  4.3600282523173974e-02  4.4170786436839908e-02  4.4748755318544421e-02 
 4.5334286846404122e-02  4.5927479976640893e-02  4.6528434960305537e-02  4.7137253360220621e-02 
 4.7754038068144829e-02  4.8378893322161776e-02  4.9011924724296614e-02  4.9653239258362986e-02 
 5.0302945308043530e-02  5.0961152675207011e-02  5.1627972598465112e-02  5.2303517771971890e-02 
 5.2987902364469562e-02  5.3681242038583148e-02  5.4383653970367818e-02  5.5095256869111840e-02 
 5.5816170997398766e-02  5.6546518191432145e-02  5.7286421881626082e-02  5.8036007113465272e-02 
 5.8795400568637905e-02  5.9564730586445368e-02  6.0344127185491758e-02  6.1133722085657372e-02 
 6.1933648730359621e-02  6.2744042309105394e-02  6.3565039780338284e-02  6.4396779894584991e-02 
 6.5239403217904501e-02  6.6093052155643900e-02  6.6957870976505435e-02  6.7834005836928238e-02 
 6.8721604805788941e-02  6.9620817889425896e-02  7.0531797056990461e-02  7.1454696266130158e-02 
 7.2389671489007920e-02  7.3336880738661792e-02  7.4296484095709311e-02  7.5268643735401847e-02 
 7.6253523955032293e-02  7.7251291201701905e-02  7.8262114100450170e-02  7.9286163482752817e-02 
 8.0323612415392751e-02  8.1374636229708877e-02  8.2439412551227401e-02  8.3518121329680797e-02 
 8.4610944869420113e-02  8.5718067860224581e-02  8.6839677408514740e-02  8.7975963068973762e-02 
 8.9127116876582771e-02  9.0293333379075039e-02  9.1474809669815249e-02  9.2671745421108634e-02 
 9.3884342917945840e-02  9.5112807092189999e-02  9.6357345557210386e-02  9.7618168642969780e-02 
 9.8895489431570505e-02  1.0018952379326602e-01  1.0150049042294335e-01  1.0282861087708313e-01 
 1.0417410961120317e-01  1.0553721401779198e-01  1.0691815446473857e-01  1.0831716433426525e-01 
 1.0973448006236995e-01  1.1117034117878366e-01  1.1262499034745276e-01  1.1409867340754894e-01 
 1.1559163941501692e-01  1.1710414068466531e-01  1.1863643283280854e-01  1.2018877482046676e-01 
 1.2176142899713054e-01  1.2335466114509876e-01  1.2496874052439659e-01  1.2660393991828073e-01 
 1.2826053567934065e-01  1.2993880777620287e-01  1.3163903984084624e-01  1.3336151921653630e-01 
 1.3510653700638733e-01  1.3687438812255903e-01  1.3866537133609799e-01  1.4047978932742947e-01 
 1.4231794873751283e-01  1.4418016021966329e-01  1.4606673849205359e-01  1.4797800239090203e-01 
 1.4991427492435647e-01  1.5187588332708366e-01  1.5386315911557238e-01  1.5587643814416083e-01 
 1.5791606066179664e-01  1.5998237136953983e-01  1.6207571947881796e-01  1.6419645877044395e-01 
 1.6634494765440555e-01  1.6852154923043780e-01  1.7072663134938762e-01  1.7296056667538140e-01 
 1.7522373274880651e-01  1.7751651205011523e-01  1.7983929206446700e-01  1.8219246534721245e-01 
 1.8457642959023732e-01  1.8699158768917271e-01  1.8943834781148564e-01  1.9191712346546033e-01 
 1.9442833357008196e-01  1.9697240252583523e-01  1.9954976028642865e-01  2.0216084243145829e-01 
 2.0480609024002117e-01  2.0748595076529294e-01  2.1020087691008071e-01  2.1295132750336465e-01 
 2.1573776737784142e-01  2.1856066744848179e-01  2.2142050479211692e-01  2.2431776272806378e-01 
 2.2725293089980955e-01  2.3022650535776143e-01  2.3323898864308015e-01  2.3629088987261082e-01 
 2.3938272482492520e-01  2.4251501602748901e-01  2.4568829284497071e-01  2.4890309156870502e-01 
 2.5215995550732800e-01  2.5545943507859670e-01  2.5880208790241188e-01  2.6218847889505659e-01 
 2.6561918036466853e-01  2.6909477210796134e-01  2.7261584150821216e-01  2.7618298363452976e-01 
 2.7979680134242441e-01  2.8345790537568888e-01  2.8716691446961912e-01  2.9092445545557971e-01 
 2.9473116336694061e-01  2.9858768154639925e-01  3.0249466175470680e-01  3.0645276428081741e-01 
 3.1046265805347867e-01  3.1452502075428229e-01  3.1864053893219330e-01  3.2280990811957905e-01 
 3.2703383294975591e-01  3.3131302727607342e-01  3.3564821429255765e-01  3.4004012665613254e-01 
 3.4448950661044070e-01  3.4899710611128437e-01  3.5356368695370838e-01  3.5819002090074276e-01 
 3.6287688981383620e-01  3.6762508578499026e-01  3.7243541127062524e-01  3.7730867922719735e-01 
 3.8224571324858991e-01  3.8724734770530334e-01  3.9231442788546511e-01  3.9744781013768576e-01 
 4.0264836201578397e-01  4.0791696242540493e-01  4.1325450177255751e-01  4.1866188211409550e-01 
 4.2414001731016643e-01  4.2968983317865700e-01  4.3531226765165831e-01  4.4100827093397793e-01 
 4.4677880566372846e-01  4.5262484707501244e-01  4.5854738316274274e-01  4.6454741484961476e-01 
 4.7062595615526415e-01  4.7678403436763911e-01  4.8302269021661431e-01  4.8934297804987686e-01 
 4.9574596601111343e-01  5.0223273622052933e-01  5.0880438495772895e-01  5.1546202284698994e-01 
 5.2220677504496171e-01  5.2903978143081865e-01  5.3596219679890333e-01  5.4297519105388892e-01 
 5.5007994940849592e-01  5.5727767258379657e-01  5.6456957701213972e-01  5.7195689504272706e-01 
 5.7944087514988929e-01  5.8702278214407733e-01  5.9470389738561868e-01  6.0248551900127101e-01 
 6.1036896210360825e-01  6.1835555901327832e-01  6.2644665948416767e-01  6.3464363093151344e-01 
 6.4294785866299986e-01  6.5136074611287853e-01  6.5988371507915189e-01  6.6851820596386069e-01 
 6.7726567801651516e-01  6.8612760958071251e-01  6.9510549834397883e-01  7.0420086159088380e-01 
 7.1341523645946514e-01  7.2275018020100401e-01  7.3220727044321221e-01  7.4178810545684959e-01 
 7.5149430442583631e-01  7.6132750772090041e-01  7.7128937717680246e-01  7.8138159637319060e-01 
 7.9160587091912982e-01  8.0196392874135281e-01  8.1245752037628460e-01  8.2308841926588772e-01 
 8.3385842205737670e-01  8.4476934890685718e-01  8.5582304378693574e-01  8.6702137479835584e-01 
 8.7836623448571161e-01  8.8985954015729207e-01  9.0150323420911249e-01  9.1329928445317743e-01 
 9.2524968445005584e-01  9.3735645384579014e-01  9.4962163871322325e-01  9.6204731189779036e-01 
 9.7463557336783380e-01  9.8738855056950314e-01  1.0003083987862993e+00  1.0133973015033211e+00 
 1.0266574707762806e+00  1.0400911476053452e+00  1.0537006023138726e+00  1.0674881349321008e+00 
 1.0814560755858571e+00  1.0956067848903579e+00  1.1099426543491551e+00  1.1244661067583079e+00 
 1.1391795966158436e+00  1.1540856105365624e+00  1.1691866676722975e+00  1.1844853201376468e+00 
 1.1999841534412889e+00  1.2156857869229409e+00  1.2315928741960327e+00  1.2477081035961739e+00 
 1.2640341986354884e+00  1.2805739184628966e+00  1.2973300583304144e+00  1.3143054500655611e+00 
 1.3315029625499433e+00  1.3489255022041020e+00  1.3665760134787064e+00  1.3844574793521722e+00 
 1.4025729218347909e+00  1.4209254024794591e+00  1.4395180228990885e+00  1.4583539252907780e+00 
 1.4774362929668641e+00  1.4967683508929035e+00  1.5163533662326973e+00  1.5361946489004523e+00 
 1.5562955521201631e+00  1.5766594729923160e+00  1.5972898530680071e+00  1.6181901789305713e+00 
 1.6393639827848230e+00  1.6608148430540108e+00  1.6825463849845745e+00  1.7045622812588241e+00 
 1.7268662526156293e+00  1.7494620684792352e+00  1.7723535475963035e+00  1.7955445586812877e+00 
 1.8190390210702627e+00  1.8428409053832844e+00  1.8669542341954548e+00  1.8913830827167366e+00 
 1.9161315794806717e+00  1.9412039070421176e+00  1.9666043026841067e+00  1.9923370591339584e+00 
 2.0184065252887584e+00  2.0448171069503345e+00  2.0715732675698479e+00  2.0986795290021258e+00 
 2.1261404722698658e+00  2.1539607383378381e+00  2.1821450288972257e+00  2.2106981071602121e+00 
 2.2396247986649844e+00  2.2689299920912549e+00  2.2986186400864659e+00  2.3286957601027818e+00 
 2.3591664352450761e+00  2.3900358151299717e+00  2.4213091167561402e+00  2.4529916253859914e+00 
 2.4850886954388893e+00  2.5176057513960677e+00  2.5505482887173780e+00  2.5839218747700321e+00 
 2.6177321497695076e+00  2.6519848277327491e+00  2.6866856974438584e+00  2.7218406234324077e+00 
 2.7574555469645605e+00  2.7935364870471617e+00  2.8300895414449605e+00  2.8671208877111507e+00 
 2.9046367842313945e+00  2.9426435712814842e+00  2.9811476720988974e+00  3.0201555939683153e+00 
 3.0596739293213759e+00  3.0997093568508114e+00  3.1402686426391635e+00  3.1813586413022645e+00 
 3.2229862971476870e+00  3.2651586453483472e+00  3.3078828131314637e+00  3.3511660209830811e+00 
 3.3950155838683447e+00  3.4394389124677462e+00  3.4844435144295525e+00  3.5300369956386102e+00 
 3.5762270615017595e+00  3.6230215182500696e+00  3.6704282742581125e+00  3.7184553413804742e+00 
 3.7671108363058110e+00  3.8164029819285710e+00  3.8663401087386853e+00  3.9169306562294426e+00 
 3.9681831743237734e+00  4.0201063248192268e+00  4.0727088828518161e+00  4.1259997383790470e+00 
 4.1799878976823441e+00  4.2346824848891247e+00  4.2900927435148057e+00  4.3462280380249760e+00 
 4.4030978554180162e+00  4.4607118068284199e+00  4.5190796291511051e+00  4.5782111866869615e+00 
 4.6381164728099629e+00  4.6988056116560273e+00  4.7602888598340725e+00  4.8225766081593786e+00 
 4.8856793834096619e+00  4.9496078501041305e+00  5.0143728123058127e+00  5.0799852154474676e+00 
 5.1464561481813886e+00  5.2137968442534159e+00  5.2820186844014616e+00  5.3511331982788883e+00 
 5.4211520664030388e+00  5.4920871221292771e+00  5.5639503536508537e+00  5.6367539060249392e+00 
 5.7105100832251621e+00  5.7852313502210144e+00  5.8609303350844746e+00  5.9376198311241373e+00 
 6.0153127990473676e+00  6.0940223691506645e+00  6.1737618435387107e+00  6.2545446983724640e+00 
 6.3363845861466652e+00  6.4192953379971334e+00  6.5032909660382652e+00  6.5883856657311215e+00 
 6.6745938182824815e+00  6.7619299930753085e+00  6.8504089501310128e+00  6.9400456426039261e+00 
 7.0308552193084202e+00  7.1228530272790920e+00  7.2160546143644524e+00  7.3104757318545497e+00 
 7.4061323371429824e+00  7.5030405964236921e+00  7.6012168874231589e+00  7.7006778021682303e+00 
 7.8014401497902286e+00  7.9035209593657223e+00  8.0069374827944930e+00  8.1117071977151429e+00 
 8.2178478104588546e+00  8.3253772590418063e+00  8.4343137161967370e+00  8.5446755924441913e+00 
 8.6564815392039218e+00  8.7697504519470399e+00  8.8845014733893919e+00  9.0007539967267203e+00 
 9.1185276689121597e+00  9.2378423939766261e+00  9.3587183363926467e+00  9.4811759244821570e+00 
 9.6052358538690239e+00  9.7309190909765793e+00  9.8582468765710427e+00  9.9872407293512264e+00 
 1.0117922449585270e+01  1.0250314122794927e+01  1.0384438123488076e+01  1.0520317118940062e+01 
 1.0657974073024523e+01  1.0797432250094332e+01  1.0938715218913339e+01  1.1081846856639546e+01 
 1.1226851352860391e+01  1.1373753213680864e+01  1.1522577265865081e+01  1.1673348661032078e+01 
 1.1826092879906504e+01  1.1980835736624863e+01  1.2137603383098259e+01  1.2296422313432073e+01 
 1.2457319368403530e+01  1.2620321739997868e+01  1.2785456976003852e+01  1.2952752984669409e+01 
 1.3122238039418178e+01  1.3293940783627809e+01  1.3467890235470733e+01  1.3644115792818335e+01 
 1.3822647238209241e+01  1.4003514743882640e+01  1.4186748876877475e+01  1.4372380604198334e+01 
 1.4560441298048962e+01  1.4750962741134218e+01  1.4943977132031476e+01  1.5139517090632125e+01 
 1.5337615663654608e+01  1.5538306330229259e+01  1.5741623007556390e+01  1.5947600056638384e+01 
 1.6156272288086779e+01  1.6367674968005353e+01  1.6581843823950170e+01  1.6798815050967630e+01 
 1.7018625317711503e+01  1.7241311772640049e+01  1.7466912050294159e+01  1.7695464277657702e+01 
 1.7927007080601093e+01  1.8161579590409119e+01  1.8399221450394240e+01  1.8639972822596402e+01 
 1.8883874394570551e+01  1.9130967386262803e+01  1.9381293556976889e+01  1.9634895212431449e+01 
 1.9891815211909865e+01  2.0152096975503536e+01  2.0415784491450012e+01  2.0682922323567080e+01 
 2.0953555618784190e+01  2.1227730114772363e+01  2.1505492147673987e+01  2.1786888659933712e+01 
 2.2071967208231872e+01  2.2360775971521637e+01  2.2653363759171413e+01  2.2949780019213673e+01 
 2.3250074846701878e+01  2.3554298992176644e+01  2.3862503870242563e+01  2.4174741568257616e+01 
 2.4491064855135932e+01  2.4811527190265863e+01  2.5136182732544786e+01  2.5465086349532061e+01 
 2.5798293626721772e+01  2.6135860876936835e+01  2.6477845149845976e+01  2.6824304241605276e+01 
 2.7175296704625847e+01  2.7530881857469328e+01  2.7891119794872889e+01  2.8256071397905345e+01 
 2.8625798344256228e+01  2.9000363118659465e+01  2.9379829023453421e+01  2.9764260189279238e+01 
 3.0153721585918802e+01  3.0548279033275151e+01  3.0947999212495997e+01  3.1352949677242986e+01 
 3.1763198865108475e+01  3.2178816109181660e+01  3.2599871649765987e+01  3.3026436646249977e+01 
 3.3458583189133286e+01  3.3896384312210238e+01  3.4339914004912622e+01  3.4789247224814154e+01 
 3.5244459910298453e+01  3.5705628993392814e+01  3.6172832412769914e+01  3.6646149126919603e+01 
 3.7125659127493130e+01  3.7611443452821931e+01  3.8103584201613067e+01  3.8602164546824490e+01 
 3.9107268749721207e+01  3.9618982174115715e+01  4.0137391300794661e+01  4.0662583742134316e+01 
 4.1194648256907264e+01  4.1733674765282892e+01  4.2279754364024029e+01  4.2832979341882599e+01 
 4.3393443195196568e+01  4.3961240643691120e+01  4.4536467646486464e+01  4.5119221418315163e+01 
 4.5709600445951679e+01  4.6307704504856822e+01  4.6913634676040111e+01  4.7527493363142717e+01 
 4.8149384309743645e+01  4.8779412616893104e+01  4.9417684760874550e+01  5.0064308611199444e+01 
 5.0719393448837536e+01  5.1383049984685556e+01  5.2055390378277615e+01  5.2736528256740449e+01 
 5.3426578733996713e+01  5.4125658430219460e+01  5.4833885491541217e+01  5.5551379610020994e+01 
 5.6278262043872523e+01  5.7014655637957155e+01  5.7760684844545018e+01  5.8516475744347623e+01 
 5.9282156067825902e+01  6.0057855216777007e+01  6.0843704286203156e+01  6.1639836086467568e+01 
 6.2446385165739372e+01  6.3263487832732615e+01  6.4091282179742819e+01  6.4929908105984836e+01 
 6.5779507341236240e+01  6.6640223469789902e+01  6.7512201954720140e+01  6.8395590162466291e+01 
 6.9290537387738027e+01  7.0197194878746473e+01  7.1115715862765526e+01  7.2046255572027704e+01 
 7.2988971269958583e+01  7.3944022277754897e+01  7.4911570001310096e+01  7.5891777958492412e+01 
 7.6884811806779354e+01  7.7890839371254955e+01  7.8910030672972013e+01  7.9942557957686333e+01 
 8.0988595724966515e+01  8.2048320757684905e+01  8.3121912151894250e+01  8.4209551347095498e+01 
 8.5311422156901287e+01  8.6427710800101011e+01  8.7558605932132252e+01  8.8704298676964001e+01 
 8.9864982659396972e+01  9.1040854037786730e+01  9.2232111537194896e+01  9.3438956482974220e+01 
 9.4661592834792884e+01  9.5900227221104572e+01  9.7155068974068271e+01  9.8426330164927052e+01 
 9.9714225639847896e+01  1.0101897305623139e+02  1.0234079291949631e+02  1.0367990862034560e+02 