  <PP_INFO>

############################################################
#    Opium Parameter File                                  #
############################################################
#-----------------------------------------------------------
#Command line   : ./opium_pclinux_static38.exe Os Os.log ae ps nl tc ke rpt upf 
 
#Opium version  : 3.8 
#Compile Host   : pzt.wm.edu 
#Compile OS     : Linux 2.6.9-42.ELsmp x86_64 
#Compile Date   : Mon Apr 27 12:45:31 EDT 2009 
#-----------------------------------------------------------
#Execution Host : bohrium-389-1001700 
#Execution Date : Mon Jan  9 13:26:08 2023
 
#-----------------------------------------------------------
############################################################
[Atom]
Os              #chemical symbol (max. 2 characters)
15              # norb: number of orbitals
# reference configuration
100 2.00 -643.0 # nlm occ eigen(- means auto-generate)
200 2.00 -77.4
210 6.00 -68.4
300 2.00 -10.0
310 6.00  -6.0
320 10.0  -6.4
400 2.00  -6.4
410 6.00  -6.0
500 2.00  -2.4
510 6.00  -2.0
420 10.0  -6.0
430 14.0  -6.4
600 1.50  -1.0
610 0.00  -1.0
520 6.00  -1.0

[Pseudo]
3 2.06 2.21 2.05
opt

[Optinfo]
7.07 10    # rc[a.u.] qc[sqrt(Ry)] Nb
7.07 10
7.07 10

[XC]
gga

[Configs]
7
#
600 0.10 -1.0
610 0.00 -1.0
520 6.00 -1.0               # number of valence configurations
#
600 1.50 -1.0   # nlm occ eigen(- means auto-generate)
610 0.00 -1.0
520 6.00 -1.0
#
600 0.10 -1.0
610 0.00 -1.0
520 6.40 -1.0
#
600 0.10 -1.0
610 0.00 -1.0
520 5.90 -1.0
#
600 0.90 -1.0   # nlm occ eigen(- means auto-generate)
610 0.00 -1.0
520 6.10 -1.0
#
600 2.00 -1.0
610 0.00 -1.0
520 6.00 -1.0
#
600 1.00 -1.0
610 0.00 -1.0
520 7.00 -1.0

[Relativity]
srl              # nrl / srl / frl


[KBdesign]
s    # local orbital
1    # number of boxes
au 0.01 1.91  -2.15 




############################################################
  </PP_INFO>



<PP_HEADER>
   0         Version Number
   Os        Element
   NC        Norm - Conserving pseudopotential
    F      Nonlinear Core Correction
SLA  PW   PBE  PBE     PBE  Exchange-Correlation functional
 8          Z valence
 0          Total energy
 0.000000   0.000000     Suggested cutoff for wfc and rho
 2           Max angular momentum component
 1187           Number of points in mesh
 3  3     Number of Wavefuncitons, Number of Projectors
 Wavefunctions         nl  l   occ
                       S  0  1.500000
                       P  1  0.000000
                       D  2  6.000000
</PP_HEADER>
<PP_MESH>
  <PP_R>
 2.3608159785434167e-05  2.3917069424835751e-05  2.4230021105895074e-05  2.4547067718191088e-05 
 2.4868262843355865e-05  2.5193660764130068e-05  2.5523316473536738e-05  2.5857285684175392e-05 
 2.6195624837637518e-05  2.6538391114045328e-05  2.6885642441715343e-05  2.7237437506948445e-05 
 2.7593835763947952e-05  2.7954897444867566e-05  2.8320683569990749e-05  2.8691255958043196e-05 
 2.9066677236640525e-05  2.9447010852872350e-05  2.9832321084025045e-05  3.0222673048444746e-05 
 3.0618132716542512e-05  3.1018766921943507e-05  3.1424643372781973e-05  3.1835830663144154e-05 
 3.2252398284660741e-05  3.2674416638251263e-05  3.3101957046021921e-05  3.3535091763319209e-05 
 3.3973893990941268e-05  3.4418437887508942e-05  3.4868798581998834e-05  3.5325052186440178e-05 
 3.5787275808778121e-05  3.6255547565904881e-05  3.6729946596861998e-05  3.7210553076214795e-05 
 3.7697448227602206e-05  3.8190714337463651e-05  3.8690434768945723e-05  3.9196693975990723e-05 
 3.9709577517609624e-05  4.0229172072341602e-05  4.0755565452903120e-05  4.1288846621028378e-05 
 4.1829105702504037e-05  4.2376434002400731e-05  4.2930924020503847e-05  4.3492669466946177e-05 
 4.4061765278045195e-05  4.4638307632347448e-05  4.5222393966883105e-05  4.5814122993632808e-05 
 4.6413594716210473e-05  4.7020910446764014e-05  4.7636172823097382e-05  4.8259485826016555e-05 
 4.8890954796902574e-05  4.9530686455514456e-05  5.0178788918025193e-05  5.0835371715293417e-05 
 5.1500545811374624e-05  5.2174423622274228e-05  5.2857119034946172e-05  5.3548747426540069e-05 
 5.4249425683900274e-05  5.4959272223319936e-05  5.5678407010553723e-05  5.6406951581092266e-05 
 5.7145029060702076e-05  5.7892764186233797e-05  5.8650283326703376e-05  5.9417714504648498e-05 
 6.0195187417764836e-05  6.0982833460825136e-05  6.1780785747885358e-05  6.2589179134781234e-05 
 6.3408150241919234e-05  6.4237837477365588e-05  6.5078381060237878e-05  6.5929923044402196e-05 
 6.6792607342480609e-05  6.7666579750172795e-05  6.8551987970895742e-05  6.9448981640746137e-05 
 7.0357712353789120e-05  7.1278333687678039e-05  7.2211001229609530e-05  7.3155872602618038e-05 
 7.4113107492214389e-05  7.5082867673373279e-05  7.6065317037873464e-05  7.7060621621995859e-05 
 7.8068949634584116e-05  7.9090471485472250e-05  8.0125359814284497e-05  8.1173789519611394e-05 
 8.2235937788568549e-05  8.3311984126741487e-05  8.4402110388522416e-05  8.5506500807844187e-05 
 8.6625342029316238e-05  8.7758823139767931e-05  8.8907135700204743e-05  9.0070473778182468e-05 
 9.1249033980605134e-05  9.2443015486952170e-05  9.3652620082939711e-05  9.4878052194623551e-05 
 9.6119518922947248e-05  9.7377230078742665e-05  9.8651398218188609e-05  9.9942238678733325e-05 
 1.0124996961548701e-04  1.0257481203809036e-04  1.0391698984806616e-04  1.0527672987665868e-04 
 1.0665426192316921e-04  1.0804981879379220e-04  1.0946363634096040e-04  1.1089595350320425e-04 
 1.1234701234553321e-04  1.1381705810034535e-04  1.1530633920887202e-04  1.1681510736316538e-04 
 1.1834361754863422e-04  1.1989212808713810e-04  1.2146090068064353e-04  1.2305020045545270e-04 
 1.2466029600701023e-04  1.2629145944529653e-04  1.2794396644081503e-04  1.2961809627118096e-04 
 1.3131413186832030e-04  1.3303235986628575e-04  1.3477307064969850e-04  1.3653655840282393e-04 
 1.3832312115928972e-04  1.4013306085245382e-04  1.4196668336643225e-04  1.4382429858779403e-04 
 1.4570622045793289e-04  1.4761276702612418e-04  1.4954426050327544e-04  1.5150102731638151e-04 
 1.5348339816369117e-04  1.5549170807059584e-04  1.5752629644624969e-04  1.5958750714093086e-04 
 1.6167568850415266e-04  1.6379119344353530e-04  1.6593437948444879e-04  1.6810560883043503e-04 
 1.7030524842442119e-04  1.7253367001073406e-04  1.7479125019792562e-04  1.7707837052242066e-04 
 1.7939541751299764e-04  1.8174278275611281e-04  1.8412086296207912e-04  1.8653006003211154e-04 
 1.8897078112624908e-04  1.9144343873216558e-04  1.9394845073488170e-04  1.9648624048738806e-04 
 1.9905723688219329e-04  2.0166187442380683e-04  2.0430059330217283e-04  2.0697383946706202e-04 
 2.0968206470343897e-04  2.1242572670781437e-04  2.1520528916559714e-04  2.1802122182945833e-04 
 2.2087400059872032e-04  2.2376410759978501e-04  2.2669203126761419e-04  2.2965826642827659e-04 
 2.3266331438257429e-04  2.3570768299076389e-04  2.3879188675838615e-04  2.4191644692321819e-04 
 2.4508189154336476e-04  2.4828875558650080e-04  2.5153758102028232e-04  2.5482891690393989e-04 
 2.5816331948107181e-04  2.6154135227364966e-04  2.6496358617725539e-04  2.6843059955756430e-04 
 2.7194297834808902e-04  2.7550131614920511e-04  2.7910621432847038e-04  2.8275828212225696e-04 
 2.8645813673871417e-04  2.9020640346207836e-04  2.9400371575834678e-04  2.9785071538233578e-04 
 3.0174805248613806e-04  3.0569638572899979e-04  3.0969638238863685e-04  3.1374871847400488e-04 
 3.1785407883954737e-04  3.2201315730093715e-04  3.2622665675233328e-04  3.3049528928517154e-04 
 3.3481977630850975e-04  3.3920084867094770e-04  3.4363924678414170e-04  3.4813572074793688e-04 
 3.5269103047713511e-04  3.5730594582992299e-04  3.6198124673797862e-04  3.6671772333828339e-04 
 3.7151617610665602e-04  3.7637741599303511e-04  3.8130226455853169e-04  3.8629155411427500e-04 
 3.9134612786207476e-04  3.9646684003692484e-04  4.0165455605137084e-04  4.0691015264176611e-04 
 4.1223451801644326e-04  4.1762855200582318e-04  4.2309316621448844e-04  4.2862928417524695e-04 
 4.3423784150520988e-04  4.3991978606391550e-04  4.4567607811351744e-04  4.5150769048107273e-04 
 4.5741560872295130e-04  4.6340083129139736e-04  4.6946436970327077e-04  4.7560724871099436e-04 
 4.8183050647574154e-04  4.8813519474288631e-04  4.9452237901975152e-04  5.0099313875568211e-04 
 5.0754856752447492e-04  5.1418977320919379e-04  5.2091787818940637e-04  5.2773401953086789e-04 
 5.3463934917768812e-04  5.4163503414701318e-04  5.4872225672625253e-04  5.5590221467289051e-04 
 5.6317612141690949e-04  5.7054520626586170e-04  5.7801071461262548e-04  5.8557390814588004e-04 
 5.9323606506333398e-04  6.0099848028774268e-04  6.0886246568575488e-04  6.1682935028961920e-04 
 6.2490048052179625e-04  6.3307722042250480e-04  6.4136095188025018e-04  6.4975307486536422e-04 
 6.5825500766660547e-04  6.6686818713085317e-04  6.7559406890593668e-04  6.8443412768664472e-04 
 6.9338985746395106e-04  7.0246277177750383e-04  7.1165440397141647e-04  7.2096630745340667e-04 
 7.3040005595732588e-04  7.3995724380912444e-04  7.4963948619629684e-04  7.5944841944085078e-04 
 7.6938570127585123e-04  7.7945301112557945e-04  7.8965205038936158e-04  7.9998454272910743e-04 
 8.1045223436061568e-04  8.2105689434868530e-04  8.3180031490609463e-04  8.4268431169648818e-04 
 8.5371072414122879e-04  8.6488141573026376e-04  8.7619827433705797e-04  8.8766321253765210e-04 
 8.9927816793388923e-04  9.1104510348087662e-04  9.2296600781872744e-04  9.3504289560864787e-04 
 9.4727780787341894e-04  9.5967281234233322e-04  9.7223000380064809e-04  9.8495150444360621e-04 
 9.9783946423509539e-04  1.0108960612709942e-03  1.0241235021472791e-03  1.0375240223329395e-03 
 1.0510998865477814e-03  1.0648533891451696e-03  1.0787868544997773e-03  1.0929026374004128e-03 
 1.1072031234479827e-03  1.1216907294586658e-03  1.1363679038723601e-03  1.1512371271664749e-03 
 1.1663009122751357e-03  1.1815618050138802e-03  1.1970223845099034e-03  1.2126852636379377e-03 
 1.2285530894618358e-03  1.2446285436819276e-03  1.2609143430882381e-03  1.2774132400196281e-03 
 1.2941280228289491e-03  1.3110615163542780e-03  1.3282165823963246e-03  1.3455961202020795e-03 
 1.3632030669547975e-03  1.3810403982703861e-03  1.3991111287002919e-03  1.4174183122409678e-03 
 1.4359650428500052e-03  1.4547544549690201e-03  1.4737897240533811e-03  1.4930740671088704e-03 
 1.5126107432353610e-03  1.5324030541776178e-03  1.5524543448832979e-03  1.5727680040682555e-03 
 1.5933474647892402e-03  1.6141962050240952e-03  1.6353177482595427e-03  1.6567156640866605e-03 
 1.6783935688041540e-03  1.7003551260295127e-03  1.7226040473181802e-03  1.7451440927908090e-03 
 1.7679790717687312e-03  1.7911128434177433e-03  1.8145493174003147e-03  1.8382924545363298e-03 
 1.8623462674724756e-03  1.8867148213603899e-03  1.9114022345436768e-03  1.9364126792539231e-03 
 1.9617503823158139e-03  1.9874196258614710e-03  2.0134247480541496e-03  2.0397701438213947e-03 
 2.0664602655977968e-03  2.0934996240774594e-03  2.1208927889763245e-03  2.1486443898044560e-03 
 2.1767591166484447e-03  2.2052417209640451e-03  2.2340970163791767e-03  2.2633298795074427e-03 
 2.2929452507722907e-03  2.3229481352419505e-03  2.3533436034753070e-03  2.3841367923788390e-03 
 2.4153329060747565e-03  2.4469372167805264e-03  2.4789550656998801e-03  2.5113918639254906e-03 
 2.5442530933534584e-03  2.5775443076097725e-03  2.6112711329888774e-03  2.6454392694045346e-03 
 2.6800544913531256e-03  2.7151226488895423e-03  2.7506496686158753e-03  2.7866415546830164e-03 
 2.8231043898053758e-03  2.8600443362888743e-03  2.8974676370723865e-03  2.9353806167828188e-03 
 2.9737896828039762e-03  3.0127013263594377e-03  3.0521221236095722e-03  3.0920587367629418e-03 
 3.1325179152022231e-03  3.1735064966248697e-03  3.2150314081986985e-03  3.2570996677325991e-03 
 3.2997183848625582e-03  3.3428947622532084e-03  3.3866360968150947e-03  3.4309497809378617e-03 
 3.4758433037395996e-03  3.5213242523325135e-03  3.5674003131051630e-03  3.6140792730214844e-03 
 3.6613690209368064e-03  3.7092775489310781e-03  3.7578129536595586e-03  3.8069834377211691e-03 
 3.8567973110447407e-03  3.9072629922934296e-03  3.9583890102874806e-03  4.0101840054456179e-03 
 4.0626567312453008e-03  4.1158160557020823e-03  4.1696709628683158e-03  4.2242305543514951e-03 
 4.2795040508524411e-03  4.3355007937236111e-03  4.3922302465478303e-03  4.4497019967376511e-03 
 4.5079257571556406e-03  4.5669113677558890e-03  4.6266687972469790e-03  4.6872081447767236e-03 
 4.7485396416389438e-03  4.8106736530025883e-03  4.8736206796634561e-03  4.9373913598188737e-03 
 5.0019964708655712e-03  5.0674469312210800e-03  5.1337538021689793e-03  5.2009282897282766e-03 
 5.2689817465472501e-03  5.3379256738220757e-03  5.4077717232405616e-03  5.4785316989512901e-03 
 5.5502175595585762e-03  5.6228414201434842e-03  5.6964155543113015e-03  5.7709523962658181e-03 
 5.8464645429107285e-03  5.9229647559785430e-03  6.0004659641873445e-03  6.0789812654257905e-03 
 6.1585239289666518e-03  6.2391073977093895e-03  6.3207452904520218e-03  6.4034514041927228e-03 
 6.4872397164615677e-03  6.5721243876827526e-03  6.6581197635677486e-03  6.7452403775397542e-03 
 6.8335009531898970e-03  6.9229164067655157e-03  7.0135018496910902e-03  7.1052725911220742e-03 
 7.1982441405321913e-03  7.2924322103345776e-03  7.3878527185372049e-03  7.4845217914330693e-03 
 7.5824557663255717e-03  7.6816711942895681e-03  7.7821848429685129e-03  7.8840136994082714e-03 
 7.9871749729279479e-03  8.0916860980282963e-03  8.1975647373382053e-03  8.3048287845997257e-03 
 8.4134963676921366e-03  8.5235858516956239e-03  8.6351158419950141e-03  8.7481051874241031e-03 
 8.8625729834512067e-03  8.9785385754062915e-03  9.0960215617504128e-03  9.2150417973878816e-03 
 9.3356193970217990e-03  9.4577747385534879e-03  9.5815284665264136e-03  9.7069014956151552e-03 
 9.8339150141600121e-03  9.9625904877479309e-03  1.0092949662840205e-02  1.0225014570447699e-02 
 1.0358807529854125e-02  1.0494351152388056e-02  1.0631668345244313e-02  1.0770782315355316e-02 
 1.0911716573313126e-02  1.1054494937342759e-02  1.1199141537327571e-02  1.1345680818887229e-02 
 1.1494137547509099e-02  1.1644536812733655e-02  1.1796904032394690e-02  1.1951264956914974e-02 
 1.2107645673658138e-02  1.2266072611337532e-02  1.2426572544482669e-02  1.2589172597964271e-02 
 1.2753900251578373e-02  1.2920783344690514e-02  1.3089850080940619e-02  1.3261129033009513e-02 
 1.3434649147447755e-02  1.3610439749567682e-02  1.3788530548399461e-02  1.3968951641711943e-02 
 1.4151733521099330e-02  1.4336907077134279e-02  1.4524503604588483e-02  1.4714554807721594e-02 
 1.4907092805639274e-02  1.5102150137721426e-02  1.5299759769121435e-02  1.5499955096337345e-02 
 1.5702769952855914e-02  1.5908238614870632e-02  1.6116395807074402e-02  1.6327276708528154e-02 
 1.6540916958606149e-02  1.6757352663019125e-02  1.6976620399916275e-02  1.7198757226067007e-02 
 1.7423800683123668e-02  1.7651788803966090e-02  1.7882760119129346e-02  1.8116753663315440e-02 
 1.8353808981990259e-02  1.8593966138066870e-02  1.8837265718676256e-02  1.9083748842026613e-02 
 1.9333457164352443e-02  1.9586432886954563e-02  1.9842718763332167e-02  2.0102358106408362e-02 
 2.0365394795850093e-02  2.0631873285483941e-02  2.0901838610808885e-02  2.1175336396607455e-02 
 2.1452412864656406e-02  2.1733114841538292e-02  2.2017489766555334e-02  2.2305585699746670e-02 
 2.2597451330010704e-02  2.2893135983333635e-02  2.3192689631125626e-02  2.3496162898666122e-02 
 2.3803607073659638e-02  2.4115074114903490e-02  2.4430616661068966e-02  2.4750288039597418e-02 
 2.5074142275712617e-02  2.5402234101551298e-02  2.5734618965412914e-02  2.6071353041130573e-02 
 2.6412493237564515e-02  2.6758097208219901e-02  2.7108223360990339e-02  2.7462930868028972e-02 
 2.7822279675748761e-02  2.8186330514953450e-02  2.8555144911101348e-02  2.8928785194703235e-02 
 2.9307314511856336e-02  2.9690796834916183e-02  3.0079296973308099e-02  3.0472880584480142e-02 
 3.0871614184999369e-02  3.1275565161793313e-02  3.1684801783538441e-02  3.2099393212197881e-02 
 3.2519409514709850e-02  3.2944921674829139e-02  3.3376001605123572e-02  3.3812722159127395e-02 
 3.4255157143653653e-02  3.4703381331267776e-02  3.5157470472924321e-02  3.5617501310768934e-02 
 3.6083551591108175e-02  3.6555700077548658e-02  3.7034026564308341e-02  3.7518611889701958e-02 
 3.8009537949802864e-02  3.8506887712283666e-02  3.9010745230437960e-02  3.9521195657385579e-02 
 4.0038325260463525e-02  4.0562221435805589e-02  4.1092972723112298e-02  4.1630668820614482e-02 
 4.2175400600232359e-02  4.2727260122933215e-02  4.3286340654289858e-02  4.3852736680242740e-02 
 4.4426543923068391e-02  4.5007859357556475e-02  4.5596781227399040e-02  4.6193409061793790e-02 
 4.6797843692264765e-02  4.7410187269703120e-02  4.8030543281630901e-02  4.8659016569690607e-02 
 4.9295713347363768e-02  4.9940741217921220e-02  5.0594209192608285e-02  5.1256227709067986e-02 
 5.1926908650005314e-02  5.2606365362095557e-02  5.3294712675140236e-02  5.3992066921473562e-02 
 5.4698545955622978e-02  5.5414269174226739e-02  5.6139357536212305e-02  5.6873933583238535e-02 
 5.7618121460405812e-02  5.8372046937236577e-02  5.9135837428930860e-02  5.9909622017899643e-02 
 6.0693531475580167e-02  6.1487698284536534e-02  6.2292256660849650e-02  6.3107342576800105e-02 
 6.3933093783847567e-02  6.4769649835911450e-02  6.5617152112955629e-02  6.6475743844882071e-02 
 6.7345570135736985e-02  6.8226777988233830e-02  6.9119516328597003e-02  7.0023936031730863e-02 
 7.0940189946717802e-02  7.1868432922650258e-02  7.2808821834800488e-02  7.3761515611132825e-02 
 7.4726675259163114e-02  7.5704463893168789e-02  7.6695046761756355e-02  7.7698591275788279e-02 
 7.8715267036675987e-02  7.9745245865042849e-02  8.0788701829762277e-02  8.1845811277375891e-02 
 8.2916752861896328e-02  8.4001707575000320e-02  8.5100858776616647e-02  8.6214392225914538e-02 
 8.7342496112697163e-02  8.8485361089206432e-02  8.9643180302343528e-02  9.0816149426311124e-02 
 9.2004466695683004e-02  9.3208332938905999e-02  9.4427951612240671e-02  9.5663528834145306e-02 
 9.6915273420111372e-02  9.8183396917953164e-02  9.9468113643560049e-02  1.0076964071711647e-01 
 1.0208819809979554e-01  1.0342400863093326e-01  1.0477729806568878e-01  1.0614829511319750e-01 
 1.0753723147522355e-01  1.0894434188531796e-01  1.1036986414848901e-01  1.1181403918139217e-01 
 1.1327711105304515e-01  1.1475932702607662e-01  1.1626093759851379e-01  1.1778219654611735e-01 
 1.1932336096527046e-01  1.2088469131642766e-01  1.2246645146813459e-01  1.2406890874162162e-01 
 1.2569233395598198e-01  1.2733700147394086e-01  1.2900318924822315e-01  1.3069117886852849e-01 
 1.3240125560912025e-01  1.3413370847703782e-01  1.3588883026093915e-01  1.3766691758058314e-01 
 1.3946827093695882e-01  1.4129319476307084e-01  1.4314199747538928e-01  1.4501499152597289e-01 
 1.4691249345527410e-01  1.4883482394563516e-01  1.5078230787548458e-01  1.5275527437424122e-01 
 1.5475405687793939e-01  1.5677899318557956e-01  1.5883042551621729e-01  1.6090870056679904e-01 
 1.6301416957075485e-01  1.6514718835735756e-01  1.6730811741185900e-01  1.6949732193641254e-01 
 1.7171517191179336e-01  1.7396204215992597e-01  1.7623831240723006e-01  1.7854436734879528e-01 
 1.8088059671339532e-01  1.8324739532935319e-01  1.8564516319126831e-01  1.8807430552761614e-01 
 1.9053523286923355e-01  1.9302836111869778e-01  1.9555411162061725e-01  1.9811291123283836e-01 
 2.0070519239858570e-01  2.0333139321954610e-01  2.0599195752990904e-01  2.0868733497137532e-01 
 2.1141798106914780e-01  2.1418435730891622e-01  2.1698693121484938e-01  2.1982617642860766e-01 
 2.2270257278939001e-01  2.2561660641502740e-01  2.2856876978413823e-01  2.3155956181935841e-01 
 2.3458948797166021e-01  2.3765906030577491e-01  2.4076879758673328e-01  2.4391922536753641e-01 
 2.4711087607797799e-01  2.5034428911462453e-01  2.5362001093197512e-01  2.5693859513481332e-01 
 2.6030060257176801e-01  2.6370660143009800e-01  2.6715716733171690e-01  2.7065288343047472e-01 
 2.7419434051071229e-01  2.7778213708710531e-01  2.8141687950581434e-01  2.8509918204695933e-01 
 2.8882966702843377e-01  2.9260896491107874e-01  2.9643771440523120e-01  3.0031656257866862e-01 
 3.0424616496596485e-01  3.0822718567927510e-01  3.1226029752057566e-01  3.1634618209536691e-01 
 3.2048552992786677e-01  3.2467904057771102e-01  3.2892742275818043e-01  3.3323139445597499e-01 
 3.3759168305255566e-01  3.4200902544707307e-01  3.4648416818090566e-01  3.5101786756382647e-01 
 3.5561088980182215e-01  3.6026401112658268e-01  3.6497801792668677e-01  3.6975370688050352e-01 
 3.7459188509083263e-01  3.7949337022130702e-01  3.8445899063458039e-01  3.8948958553231994e-01 
 3.9458600509703734e-01  3.9974911063576907e-01  4.0497977472563979e-01  4.1027888136133006e-01 
 4.1564732610447391e-01  4.2108601623501024e-01  4.2659587090451584e-01  4.3217782129154353e-01 
 4.3783281075899466e-01  4.4356179501354853e-01  4.4936574226717968e-01  4.5524563340078777e-01 
 4.6120246212996940e-01  4.6723723517295734e-01  4.7335097242075941e-01  4.7954470710952180e-01 
 4.8581948599514913e-01  4.9217636953020627e-01  4.9861643204314138e-01  5.0514076191984714e-01 
 5.1175046178760120e-01  5.1844664870141310e-01  5.2523045433280857e-01  5.3210302516108554e-01 
 5.3906552266707153e-01  5.4611912352941649e-01  5.5326501982345389e-01  5.6050441922266603e-01 
 5.6783854520278132e-01  5.7526863724854660e-01  5.8279595106320203e-01  5.9042175878069791e-01 
 5.9814734918068846e-01  6.0597402790633914e-01  6.1390311768498385e-01  6.2193595855166528e-01 
 6.3007390807560937e-01  6.3831834158965528e-01  6.4667065242268917e-01  6.5513225213512127e-01 
 6.6370457075744238e-01  6.7238905703190255e-01  6.8118717865735201e-01  6.9010042253728610e-01 
 6.9913029503113455e-01  7.0827832220884102e-01  7.1754605010877193e-01  7.2693504499900019e-01 
 7.3644689364200888e-01  7.4608320356285796e-01  7.5584560332085926e-01  7.6573574278480783e-01 
 7.7575529341181315e-01  7.8590594852977635e-01  7.9618942362357348e-01  8.0660745662497080e-01 
 8.1716180820634143e-01  8.2785426207822310e-01  8.3868662529076932e-01  8.4966072853914476e-01 
 8.6077842647291813e-01  8.7204159800950154e-01  8.8345214665169181e-01  8.9501200080936794e-01 
 9.0672311412539575e-01  9.1858746580579975e-01  9.3060706095425161e-01  9.4278393091093948e-01 
 9.5512013359586867e-01  9.6761775385665383e-01  9.8027890382086635e-01  9.9310572325298130e-01 
 1.0061003799160140e+00  1.0192650699378685e+00  1.0326020181824918e+00  1.0461134786258810e+00 
 1.0598017347370092e+00  1.0736690998637384e+00  1.0877179176237808e+00  1.1019505623007759e+00 
 1.1163694392455483e+00  1.1309769852826206e+00  1.1457756691220407e+00  1.1607679917765992e+00 
 1.1759564869845078e+00  1.1913437216376073e+00  1.2069322962151765e+00  1.2227248452234218e+00 
 1.2387240376407156e+00  1.2549325773686515e+00  1.2713532036890236e+00  1.2879886917267627e+00 
 1.3048418529189412e+00  1.3219155354899133e+00  1.3392126249326697e+00  1.3567360444964955e+00 
 1.3744887556810041e+00  1.3924737587366394e+00  1.4106940931717225e+00  1.4291528382661407e+00 
 1.4478531135917478e+00  1.4667980795395823e+00  1.4859909378539806e+00  1.5054349321736780e+00 
 1.5251333485799941e+00  1.5450895161521843e+00  1.5653068075300702e+00  1.5857886394840073e+00 
 1.6065384734923478e+00  1.6275598163264251e+00  1.6488562206432114e+00  1.6704312855857240e+00 
 1.6922886573912888e+00  1.7144320300077631e+00  1.7368651457178228e+00  1.7595917957714158e+00 
 1.7826158210264926e+00  1.8059411125981217e+00  1.8295716125160946e+00  1.8535113143911395e+00 
 1.8777642640898526e+00  1.9023345604184576e+00  1.9272263558155143e+00  1.9524438570536884e+00 
 1.9779913259507134e+00  2.0038730800896314e+00  2.0300934935484958e+00  2.0566569976395899e+00 
 2.0835680816583264e+00  2.1108312936419575e+00  2.1384512411381964e+00  2.1664325919839089e+00 
 2.1947800750939859e+00  2.2234984812605427e+00  2.2525926639625737e+00  2.2820675401862025e+00 
 2.3119280912556648e+00  2.3421793636751622e+00  2.3728264699817334e+00  2.4038745896092886e+00 
 2.4353289697639409e+00  2.4671949263108033e+00  2.4994778446723784e+00  2.5321831807386976e+00 
 2.5653164617894029e+00  2.5988832874278520e+00  2.6328893305274699e+00  2.6673403381904781e+00 
 2.7022421327191690e+00  2.7376006125998869e+00  2.7734217534998886e+00  2.8097116092772434e+00 
 2.8464763130039521e+00  2.8837220780024468e+00  2.9214551988956616e+00  2.9596820526708365e+00 
 2.9984090997572408e+00  3.0376428851180095e+00  3.0773900393562466e+00  3.1176572798356204e+00 
 3.1584514118156179e+00  3.1997793296016268e+00  3.2416480177101237e+00  3.2840645520490477e+00 
 3.3270361011136602e+00  3.3705699271980301e+00  3.4146733876223774e+00  3.4593539359764858e+00 
 3.5046191233793706e+00  3.5504765997554402e+00  3.5969341151273464e+00  3.6439995209257594e+00 
 3.6916807713162809e+00  3.7399859245437117e+00  3.7889231442939191e+00  3.8385007010735159e+00 
 3.8887269736075978e+00  3.9396104502557638e+00  3.9911597304466859e+00  4.0433835261313913e+00 
 4.0962906632556582e+00  4.1498900832515826e+00  4.2041908445487159e+00  4.2592021241049602e+00 
 4.3149332189574903e+00  4.3713935477939829e+00  4.4285926525443928e+00  4.4865401999935610e+00 
 4.5452459834149277e+00  4.6047199242256172e+00  4.6649720736631801e+00  4.7260126144842749e+00 
 4.7878518626855868e+00  4.8505002692472425e+00  4.9139684218990602e+00  4.9782670469098997e+00 
 5.0434070109004336e+00  5.1093993226795957e+00  5.1762551351051576e+00  5.2439857469685389e+00 
 5.3126026049043507e+00  5.3821173053249023e+00  5.4525415963800095e+00  5.5238873799424839e+00 
 5.5961667136195548e+00  5.6693918127906446e+00  5.7435750526717975e+00  5.8187289704071175e+00 
 5.8948662671875720e+00  5.9719998103975342e+00  6.0501426357893910e+00  6.1293079496866216e+00 
 6.2095091312156931e+00  6.2907597345671737e+00  6.3730734912864246e+00  6.4564643125942238e+00 
 6.5409462917378587e+00  6.6265337063728840e+00  6.7132410209760760e+00  6.8010828892899768e+00 
 6.8900741567994030e+00  6.9802298632403703e+00  7.0715652451418496e+00  7.1640957384007677e+00 
 7.2578369808907137e+00  7.3528048151047871e+00  7.4490152908329978e+00  7.5464846678747373e+00 
 7.6452294187867098e+00  7.7452662316668448e+00  7.8466120129746146e+00  7.9492838903882710e+00 
 8.0532992156994823e+00  8.1586755677457656e+00  8.2654307553814341e+00  8.3735828204872860e+00 
 8.4831500410197354e+00  8.5941509340998383e+00  8.7066042591427149e+00  8.8205290210279479e+00 
 8.9359444733114426e+00  9.0528701214793408e+00  9.1713257262444774e+00  9.2913313068859935e+00 
 9.4129071446326371e+00  9.5360737860903537e+00  9.6608520467146981e+00  9.7872630143287012e+00 
 9.9153280526867551e+00  1.0045068805085156e+01  1.0176507198019870e+01  1.0309665444892101e+01 
 1.0444566049762519e+01  1.0581231811154428e+01  1.0719685825906776e+01  1.0859951493077590e+01 
 1.1002052517898472e+01  1.1146012915780828e+01  1.1291857016374536e+01  1.1439609467679727e+01 
 1.1589295240212330e+01  1.1740939631224178e+01  1.1894568268978270e+01  1.2050207117080044e+01 
 1.2207882478865265e+01  1.2367621001845352e+01  1.2529449682210890e+01  1.2693395869394024e+01 
 1.2859487270690613e+01  1.3027751955942751e+01  1.3198218362282754e+01  1.3370915298939021e+01 
 1.3545871952104880e+01  1.3723117889871128e+01  1.3902683067223117e+01  1.4084597831103194e+01 
 1.4268892925539436e+01  1.4455599496841439e+01  1.4644749098864128e+01  1.4836373698340447e+01 
 1.5030505680283790e+01  1.5227177853461162e+01  1.5426423455937924e+01  1.5628276160695119e+01 
 1.5832770081320282e+01  1.6039939777772737e+01  1.6249820262224219e+01  1.6462447004976163e+01 
 1.6677855940454162e+01  1.6896083473281006e+01  1.7117166484429152e+01  1.7341142337453679e+01 
 1.7568048884806828e+01  1.7797924474235163e+01  1.8030807955260428e+01  1.8266738685745203e+01 
 1.8505756538544471e+01  1.8747901908244248e+01  1.8993215717988331e+01  1.9241739426394453e+01 
 1.9493515034560829e+01  1.9748585093164504e+01  2.0006992709652462e+01  2.0268781555526971e+01 
 2.0533995873725985e+01  2.0802680486100552e+01  2.1074880800989668e+01  2.1350642820894404e+01 
 2.1630013150252466e+01  2.1913039003314445e+01  2.2199768212123139e+01  2.2490249234597272e+01 
 2.2784531162721027e+01  2.3082663730840668e+01  2.3384697324069794e+01  2.3690682986804529e+01 
 2.4000672431350150e+01  2.4314718046660598e+01  2.4632872907192301e+01  2.4955190781873949e+01 
 2.5281726143193499e+01  2.5612534176404246e+01  2.5947670788851070e+01  2.6287192619419180e+01 
 2.6631157048106036e+01  2.6979622205718748e+01  2.7332646983698336e+01  2.7690291044072513e+01 
 2.8052614829538708e+01  2.8419679573679037e+01  2.8791547311308904e+01  2.9168280888961046e+01 
 2.9549943975506750e+01  2.9936601072916048e+01  3.0328317527158674e+01  3.0725159539247716e+01 
 3.1127194176427750e+01  3.1534489383509321e+01  3.1947113994351849e+01  3.2365137743496703e+01 
 3.2788631277952298e+01  3.3217666169133992e+01  3.3652314924959533e+01  3.4092651002103153e+01 
 3.4538748818409928e+01  3.4990683765472589e+01  3.5448532221372830e+01  3.5912371563589396e+01 
 3.6382280182075142e+01  3.6858337492505008e+01  3.7340623949697509e+01  3.7829221061211818e+01 
 3.8324211401122668e+01  3.8825678623975641e+01  3.9333707478924971e+01  3.9848383824056157e+01 
 4.0369794640896764e+01  4.0898028049115709e+01  4.1433173321416064e+01  4.1975320898622847e+01 
 4.2524562404966673e+01  4.3080990663569665e+01  4.3644699712131562e+01  4.4215784818823579e+01 
 4.4794342498387664e+01  4.5380470528449010e+01  4.5974267966039406e+01  4.6575835164339431e+01 
 4.7185273789637051e+01  4.7802686838510823e+01  4.8428178655235136e+01  4.9061854949416116e+01 
 4.9703822813855325e+01  5.0354190742650168e+01  5.1013068649528179e+01  5.1680567886424178e+01 
 5.2356801262297736e+01  5.3041883062198693e+01  5.3735929066582166e+01  5.4439056570874406e+01 
 5.5151384405297520e+01  5.5873032954950602e+01  5.6604124180156461e+01  5.7344781637071875e+01 