  <PP_INFO>

############################################################
#    Opium Parameter File                                  #
############################################################
#-----------------------------------------------------------
#Command line   : ./opium_pclinux_static38.exe W W.log ae ps nl tc ke rpt upf 
 
#Opium version  : 3.8 
#Compile Host   : pzt.wm.edu 
#Compile OS     : Linux 2.6.9-42.ELsmp x86_64 
#Compile Date   : Mon Apr 27 12:45:31 EDT 2009 
#-----------------------------------------------------------
#Execution Host : bohrium-389-1001700 
#Execution Date : Mon Jan  9 13:11:06 2023
 
#-----------------------------------------------------------
############################################################
[Atom]
W
14              # norb: number of orbitals
100 2.00 -643.0 # nlm occ eigen(- means auto-generate)
200 2.00 -77.4
210 6.00 -68.4
300 2.00 -10.0
310 6.00  -6.0
320 10.0  -6.4
400 2.00  -6.4
410 6.00  -6.0
420 10.0  -6.0
430 14.0  -1.9
500 2.00  -2.4
510 6.00  -2.0
520 0.00  -1.0
600 0.00  -1.0

[Pseudo]
4  1.75 1.77 1.80 1.79
opt

 [Optinfo]
 7.07  10
 7.07  10
 7.07  10
 7.07  10

[XC]
 gga

[Configs]
8              
#
500 2.00  -2.4 
510 6.00  -2.0
520 0.00 -1.0
600 0.00 -1.0 
#
500 2.00  -2.4 
510 6.00  -2.0
520 1.00 -1.0
600 0.00 -1.0 
#
500 2.00  -2.4 
510 6.00  -2.0
520 1.00 -1.0
600 1.00 -1.0
#
500 2.00  -2.4 
510 6.00  -2.0
520 2.00 -1.0
600 0.00 -1.0 
#
500 2.00  -2.4 
510 6.00  -2.0
520 2.00 -1.0
600 1.00 -1.0 
#
500 2.00  -2.4 
510 6.00  -2.0
520 2.00 -1.0
600 2.00 -1.0 
#
500 2.00  -2.4 
510 6.00  -2.0
520 3.00 -1.0
600 2.00 -1.0 
#
500 2.00  -2.4 
510 6.00  -2.0
520 4.00 -1.0
600 2.00 -1.0 

[Relativity]
srl              # nrl / srl / frl

[KBdesign]
0                 # local orbital
1                 # number of aug. operators
au 0.01 1.60 1.58



############################################################
  </PP_INFO>



<PP_HEADER>
   0         Version Number
   W        Element
   NC        Norm - Conserving pseudopotential
    F      Nonlinear Core Correction
SLA  PW   PBE  PBE     PBE  Exchange-Correlation functional
 14          Z valence
 0          Total energy
 0.000000   0.000000     Suggested cutoff for wfc and rho
 2           Max angular momentum component
 1187           Number of points in mesh
 3  3     Number of Wavefuncitons, Number of Projectors
 Wavefunctions         nl  l   occ
                       S  0  2.000000
                       P  1  6.000000
                       D  2  0.000000
</PP_HEADER>
<PP_MESH>
  <PP_R>
 2.3818958080238593e-05  2.4130625987367364e-05  2.4446372027721224e-05  2.4766249563132505e-05 
 2.5090312653666027e-05  2.5418616066755403e-05  2.5751215286458810e-05  2.6088166522836012e-05 
 2.6429526721447935e-05  2.6775353572980603e-05  2.7125705522995049e-05  2.7480641781804673e-05 
 2.7840222334482027e-05  2.8204507950996318e-05  2.8573560196483808e-05  2.8947441441652312e-05 
 2.9326214873322169e-05  2.9709944505104854e-05  3.0098695188221434e-05  3.0492532622462640e-05 
 3.0891523367292212e-05  3.1295734853095669e-05  3.1705235392576181e-05  3.2120094192299601e-05 
 3.2540381364390408e-05  3.2966167938381059e-05  3.3397525873215964e-05  3.3834528069412784e-05 
 3.4277248381382794e-05  3.4725761629912421e-05  3.5180143614808168e-05  3.5640471127706960e-05 
 3.6106821965054143e-05  3.6579274941251118e-05  3.7057909901975374e-05  3.7542807737674483e-05 
 3.8034050397236760e-05  3.8531720901840902e-05  3.9035903358986669e-05  3.9546682976709330e-05 
 4.0064146077980002e-05  4.0588380115294416e-05  4.1119473685452554e-05  4.1657516544531850e-05 
 4.2202599623056110e-05  4.2754815041362930e-05  4.3314256125172333e-05  4.3881017421359008e-05 
 4.4455194713930953e-05  4.5036885040217268e-05  4.5626186707267485e-05  4.6223199308465959e-05 
 4.6828023740363258e-05  4.7440762219727893e-05  4.8061518300821281e-05  4.8690396892898554e-05 
 4.9327504277938597e-05  4.9972948128605841e-05  5.0626837526447256e-05  5.1289282980327467e-05 
 5.1960396445104776e-05  5.2640291340552063e-05  5.3329082570524891e-05  5.4026886542380517e-05 
 5.4733821186651020e-05  5.5450005976973852e-05  5.6175561950283178e-05  5.6910611727265423e-05 
 5.7655279533082278e-05  5.8409691218365364e-05  5.9173974280485083e-05  5.9948257885097983e-05 
 6.0732672887976120e-05  6.1527351857121966e-05  6.2332429095172696e-05  6.3148040662097739e-05 
 6.3974324398193130e-05  6.4811419947376881e-05  6.5659468780789241e-05  6.6518614220701402e-05 
 6.7389001464737567e-05  6.8270777610413650e-05  6.9164091679996931e-05  7.0069094645691373e-05 
 7.0985939455152139e-05  7.1914781057334304e-05  7.2855776428679237e-05  7.3809084599644413e-05 
 7.4774866681579693e-05  7.5753285893955555e-05  7.6744507591947663e-05  7.7748699294382154e-05 
 7.8766030712046836e-05  7.9796673776372619e-05  8.0840802668490409e-05  8.1898593848668083e-05 
 8.2970226086132861e-05  8.4055880489283284e-05  8.5155740536297519e-05  8.6269992106141282e-05 
 8.7398823509981906e-05  8.8542425523013385e-05  8.9700991416697800e-05  9.0874716991428724e-05 
 9.2063800609621760e-05  9.3268443229238565e-05  9.4488848437749047e-05  9.5725222486538086e-05 
 9.6977774325762652e-05  9.8246715639664737e-05  9.9532260882346645e-05  1.0083462731401407e-04 
 1.0215403503769372e-04  1.0349070703643122e-04  1.0484486921097587e-04  1.0621675041795803e-04 
 1.0760658250856693e-04  1.0901460036773389e-04  1.1044104195382829e-04  1.1188614833887325e-04 
 1.1335016374928731e-04  1.1483333560715948e-04  1.1633591457206358e-04  1.1785815458342111e-04 
 1.1940031290341706e-04  1.2096265016047800e-04  1.2254543039331880e-04  1.2414892109556609e-04 
 1.2577339326096497e-04  1.2741912142917781e-04  1.2908638373218201e-04  1.3077546194127502e-04 
 1.3248664151469447e-04  1.3422021164586083e-04  1.3597646531225243e-04  1.3775569932491892e-04 
 1.3955821437864322e-04  1.4138431510275955e-04  1.4323431011263658e-04  1.4510851206183439e-04 
 1.4700723769494272e-04  1.4893080790111298e-04  1.5087954776828822e-04  1.5285378663814427e-04 
 1.5485385816174893e-04  1.5688010035595011e-04  1.5893285566050125e-04  1.6101247099593459e-04 
 1.6311929782219148e-04  1.6525369219802001e-04  1.6741601484115002e-04  1.6960663118925428e-04 
 1.7182591146170973e-04  1.7407423072216449e-04  1.7635196894192482e-04  1.7865951106417122e-04 
 1.8099724706901424e-04  1.8336557203940286e-04  1.8576488622789399e-04  1.8819559512429600e-04 
 1.9065810952419775e-04  1.9315284559839378e-04  1.9568022496321846e-04  1.9824067475179979e-04 
 2.0083462768624613e-04  2.0346252215077730e-04  2.0612480226581242e-04  2.0882191796302746e-04 
 2.1155432506139463e-04  2.1432248534421704e-04  2.1712686663717077e-04  2.1996794288736907e-04 
 2.2284619424346036e-04  2.2576210713677453e-04  2.2871617436353019e-04  2.3170889516811995e-04 
 2.3474077532748266e-04  2.3781232723658156e-04  2.4092406999499970e-04  2.4407652949466965e-04 
 2.4727023850874987e-04  2.5050573678166523e-04  2.5378357112032469e-04  2.5710429548653284e-04 
 2.6046847109061132e-04  2.6387666648624420e-04  2.6732945766656525e-04  2.7082742816150209e-04 
 2.7437116913639351e-04  2.7796127949189899e-04  2.8159836596521325e-04  2.8528304323260722e-04 
 2.8901593401330859e-04  2.9279766917474401e-04  2.9662888783915680e-04  3.0051023749161983e-04 
 3.0444237408946257e-04  3.0842596217312853e-04  3.1246167497848542e-04  3.1655019455060265e-04 
 3.2069221185901923e-04  3.2488842691451823e-04  3.2913954888743170e-04  3.3344629622749120e-04 
 3.3780939678524751e-04  3.4222958793507974e-04  3.4670761669981234e-04  3.5124423987696488e-04 
 3.5584022416665199e-04  3.6049634630115743e-04  3.6521339317620392e-04  3.6999216198394029e-04 
 3.7483346034766914e-04  3.7973810645833674e-04  3.8470692921280925e-04  3.8974076835395828e-04 
 3.9484047461257985e-04  4.0000690985116956e-04  4.0524094720957934e-04  4.1054347125258007e-04 
 4.1591537811935570e-04  4.2135757567495229e-04  4.2687098366370977e-04  4.3245653386470083e-04 
 4.3811517024920312e-04  4.4384784914023424e-04  4.4965553937417068e-04  4.5553922246448539e-04 
 4.6149989276762370e-04  4.6753855765105406e-04  4.7365623766351455e-04  4.7985396670748785e-04 
 4.8613279221393374e-04  4.9249377531930668e-04  4.9893799104489163e-04  5.0546652847848340e-04 
 5.1208049095844788e-04  5.1878099626018507e-04  5.2556917678503912e-04  5.3244617975167535e-04 
 5.3941316738996309e-04  5.4647131713739553e-04  5.5362182183807851e-04  5.6086588994432561e-04 
 5.6820474572088836e-04  5.7563962945186039e-04  5.8317179765028768e-04  5.9080252327052313e-04 
 5.9853309592335839e-04  6.0636482209397132e-04  6.1429902536272560e-04  6.2233704662885685e-04 
 6.3048024433709070e-04  6.3872999470722153e-04  6.4708769196669745e-04  6.5555474858624663e-04 
 6.6413259551859050e-04  6.7282268244027704e-04  6.8162647799667909e-04  6.9054547005019981e-04 
 6.9958116593172345e-04  7.0873509269536066e-04  7.1800879737652160e-04  7.2740384725336973e-04 
 7.3692183011169485e-04  7.4656435451325406e-04  7.5633305006762136e-04  7.6622956770759610e-04 
 7.7625557996821408e-04  7.8641278126940985e-04  7.9670288820237855e-04  8.0712763981968349e-04 
 8.1768879792916015e-04  8.2838814739166484e-04  8.3922749642272271e-04  8.5020867689811880e-04 
 8.6133354466348937e-04  8.7260397984796568e-04  8.8402188718191769e-04  8.9558919631886125e-04 
 9.0730786216157173e-04  9.1917986519246824e-04  9.3120721180831858e-04  9.4339193465932825e-04 
 9.5573609299265936e-04  9.6824177300045022e-04  9.8091108817238790e-04  9.9374617965288935e-04 
 1.0067492166029649e-03  1.0199223965668060e-03  1.0332679458431820e-03  1.0467881198616821e-03 
 1.0604852035638965e-03  1.0743615117895697e-03  1.0884193896678206e-03  1.1026612130134686e-03 
 1.1170893887285560e-03  1.1317063552091194e-03  1.1465145827572836e-03  1.1615165739987500e-03 
 1.1767148643057437e-03  1.1921120222255000e-03  1.2077106499143544e-03  1.2235133835775125e-03 
 1.2395228939145761e-03  1.2557418865708947e-03  1.2721731025948314e-03  1.2888193189010016e-03 
 1.3056833487395804e-03  1.3227680421717494e-03  1.3400762865513622e-03  1.3576110070129121e-03 
 1.3753751669658928e-03  1.3933717685956169e-03  1.4116038533705931e-03  1.4300745025565425e-03 
 1.4487868377371399e-03  1.4677440213415678e-03  1.4869492571789745e-03  1.5064057909799295e-03 
 1.5261169109449502e-03  1.5460859483002263e-03  1.5663162778605994e-03  1.5868113185999154e-03 
 1.6075745342288388e-03  1.6286094337802299e-03  1.6499195722021781e-03  1.6715085509587963e-03 
 1.6933800186388801e-03  1.7155376715725214e-03  1.7379852544558033e-03  1.7607265609836617e-03 
 1.7837654344910253e-03  1.8071057686023528e-03  1.8307515078896603e-03  1.8547066485391666e-03 
 1.8789752390266578e-03  1.9035613808016892e-03  1.9284692289807336e-03  1.9537029930494203e-03 
 1.9792669375739338e-03  2.0051653829217440e-03  2.0314027059917554e-03  2.0579833409540157e-03 
 2.0849117799990953e-03  2.1121925740972868e-03  2.1398303337677254e-03  2.1678297298575720e-03 
 2.1961954943314089e-03  2.2249324210709457e-03  2.2540453666851979e-03  2.2835392513312659e-03 
 2.3134190595458528e-03  2.3436898410876652e-03  2.3743567117908296e-03  2.4054248544294866e-03 
 2.4368995195936842e-03  2.4687860265767505e-03  2.5010897642742573e-03  2.5338161920947610e-03 
 2.5669708408824583e-03  2.6005593138519025e-03  2.6345872875349710e-03  2.6690605127402053e-03 
 2.7039848155247168e-03  2.7393660981787958e-03  2.7752103402234230e-03  2.8115235994208166e-03 
 2.8483120127982113e-03  2.8855817976850269e-03  2.9233392527636139e-03  2.9615907591337494e-03 
 3.0003427813910508e-03  3.0396018687195163e-03  3.0793746559983387e-03  3.1196678649232346e-03 
 3.1604883051424143e-03  3.2018428754074305e-03  3.2437385647390866e-03  3.2861824536085946e-03 
 3.3291817151341946e-03  3.3727436162934274e-03  3.4168755191512725e-03  3.4615848821043464e-03 
 3.5068792611414015e-03  3.5527663111203016e-03  3.5992537870617090e-03  3.6463495454597014e-03 
 3.6940615456095426e-03  3.7423978509528136e-03  3.7913666304401667e-03  3.8409761599118852e-03 
 3.8912348234965218e-03  3.9421511150278428e-03  3.9937336394803057e-03  4.0459911144233125e-03 
 4.0989323714945083e-03  4.1525663578923415e-03  4.2069021378881681e-03  4.2619488943581333e-03 
 4.3177159303350969e-03  4.3742126705808657e-03  4.4314486631790136e-03  4.4894335811485140e-03 
 4.5481772240785140e-03  4.6076895197844862e-03  4.6679805259860485e-03  4.7290604320067483e-03 
 4.7909395604960776e-03  4.8536283691740355e-03  4.9171374525984832e-03  4.9814775439556841e-03 
 5.0466595168742120e-03  5.1126943872626283e-03  5.1795933151712013e-03  5.2473676066779693e-03 
 5.3160287157995095e-03  5.3855882464266822e-03  5.4560579542857262e-03  5.5274497489249874e-03 
 5.5997756957276799e-03  5.6730480179509575e-03  5.7472790987916746e-03  5.8224814834791664e-03 
 5.8986678813954356e-03  5.9758511682230604e-03  6.0540443881212198e-03  6.1332607559301897e-03 
 6.2135136594046562e-03  6.2948166614763285e-03  6.3771835025460627e-03  6.4606281028060401e-03 
 6.5451645645923104e-03  6.6308071747681252e-03  6.7175704071384349e-03  6.8054689248960212e-03 
 6.8945175830995940e-03  6.9847314311843219e-03  7.0761257155052592e-03  7.1687158819139802e-03 
 7.2625175783689816e-03  7.3575466575802198e-03  7.4538191796882638e-03  7.5513514149784860e-03 
 7.6501598466307864e-03  7.7502611735052931e-03  7.8516723129644882e-03  7.9544104037323152e-03 
 8.0584928087906373e-03  8.1639371183136380e-03  8.2707611526405926e-03  8.3789829652875566e-03 
 8.4886208459984437e-03  8.5996933238360433e-03  8.7122191703134805e-03  8.8262174025666197e-03 
 8.9417072865680420e-03  9.0587083403830225e-03  9.1772403374681295e-03  9.2973233100129907e-03 
 9.4189775523257722e-03  9.5422236242629736e-03  9.6670823547040912e-03  9.7935748450717532e-03 
 9.9217224728978797e-03  1.0051546895436584e-02  1.0183070053324274e-02  1.0316314174287666e-02 
 1.0451301776900335e-02  1.0588055674388414e-02  1.0726598978486062e-02  1.0866955103341415e-02 
 1.1009147769473645e-02  1.1153201007781749e-02  1.1299139163605858e-02  1.1446986900841666e-02 
 1.1596769206108653e-02  1.1748511392972900e-02  1.1902239106225156e-02  1.2057978326214844e-02 
 1.2215755373240820e-02  1.2375596911999560e-02  1.2537529956091538e-02  1.2701581872586628e-02 
 1.2867780386649180e-02  1.3036153586223636e-02  1.3206729926781471e-02  1.3379538236130228e-02 
 1.3554607719285487e-02  1.3731967963406580e-02  1.3911648942796914e-02  1.4093681023969639e-02 
 1.4278094970779746e-02  1.4464921949623151e-02  1.4654193534703961e-02  1.4845941713370532e-02 
 1.5040198891521441e-02  1.5236997899082148e-02  1.5436371995553328e-02  1.5638354875631831e-02 
 1.5842980674905093e-02  1.6050283975620243e-02  1.6260299812528505e-02  1.6473063678806171e-02 
 1.6688611532053040e-02  1.6906979800369329e-02  1.7128205388512133e-02  1.7352325684132381e-02 
 1.7579378564093473e-02  1.7809402400872511e-02  1.8042436069045393e-02  1.8278518951856684e-02 
 1.8517690947875483e-02  1.8759992477738373e-02  1.9005464490980600e-02  1.9254148472956638e-02 
 1.9506086451851347e-02  1.9761321005782807e-02  2.0019895269998082e-02  2.0281852944163278e-02 
 2.0547238299748808e-02  2.0816096187511405e-02  2.1088472045074021e-02  2.1364411904604856e-02 
 2.1643962400596933e-02  2.1927170777749441e-02  2.2214084898952196e-02  2.2504753253374522e-02 
 2.2799224964660154e-02  2.3097549799229188e-02  2.3399778174688683e-02  2.3705961168353436e-02 
 2.4016150525878126e-02  2.4330398670002452e-02  2.4648758709410711e-02  2.4971284447707305e-02 
 2.5298030392509621e-02  2.5629051764660026e-02  2.5964404507558284e-02  2.6304145296616111e-02 
 2.6648331548835478e-02  2.6997021432512206e-02  2.7350273877066556e-02  2.7708148583002419e-02 
 2.8070706031996913e-02  2.8438007497121782e-02  2.8810115053198873e-02  2.9187091587290829e-02 
 2.9569000809329126e-02  2.9955907262881276e-02  3.0347876336058816e-02  3.0744974272568035e-02 
 3.1147268182905335e-02  3.1554826055699071e-02  3.1967716769199739e-02  3.2386010102920672e-02 
 3.2809776749430829e-02  3.3239088326302076e-02  3.3674017388212713e-02  3.4114637439209380e-02 
 3.4561022945129409e-02  3.5013249346185750e-02  3.5471393069716542e-02  3.5935531543101432e-02 
 3.6405743206847141e-02  3.6882107527844009e-02  3.7364705012796075e-02  3.7853617221826896e-02 
 3.8348926782263489e-02  3.8850717402600432e-02  3.9359073886646882e-02  3.9874082147858619e-02 
 4.0395829223857468e-02  4.0924403291141158e-02  4.1459893679985059e-02  4.2002390889539457e-02 
 4.2551986603123940e-02  4.3108773703722188e-02  4.3672846289679400e-02  4.4244299690605199e-02 
 4.4823230483484439e-02  4.5409736508998988e-02  4.6003916888063122e-02  4.6605872038575101e-02 
 4.7215703692388096e-02  4.7833514912503039e-02  4.8459410110486593e-02  4.9093495064116900e-02 
 4.9735876935260312e-02  5.0386664287982018e-02  5.1045967106893492e-02  5.1713896815740373e-02 
 5.2390566296233190e-02  5.3076089907124681e-02  5.3770583503536709e-02  5.4474164456540020e-02 
 5.5186951672990266e-02  5.5909065615623546e-02  5.6640628323414891e-02  5.7381763432203019e-02 
 5.8132596195585334e-02  5.8893253506085909e-02  5.9663863916600654e-02  6.0444557662123054e-02 
 6.1235466681754273e-02  6.2036724641001045e-02  6.2848466954365537e-02  6.3670830808230799e-02 
 6.4503955184045350e-02  6.5347980881811665e-02  6.6203050543881509e-02  6.7069308679062925e-02 
 6.7946901687042566e-02  6.8835977883127480e-02  6.9736687523310970e-02  7.0649182829665952e-02 
 7.1573618016071025e-02  7.2510149314272937e-02  7.3458935000290146e-02  7.4420135421161798e-02 
 7.5393913022046857e-02  7.6380432373677323e-02  7.7379860200171749e-02  7.8392365407211576e-02 
 7.9418119110586619e-02  8.0457294665114157e-02  8.1510067693936261e-02  8.2576616118200469e-02 
 8.3657120187128980e-02  8.4751762508481182e-02  8.5860728079414680e-02  8.6984204317750460e-02 
 8.8122381093646771e-02  8.9275450761687664e-02  9.0443608193391506e-02  9.1627050810144578e-02 
 9.2825978616565802e-02  9.4040594234308064e-02  9.5271102936301755e-02  9.6517712681445988e-02 
 9.7780634149754880e-02  9.9060080777962425e-02  1.0035626879559403e-01  1.0166941726150973e-01 
 1.0299974810092567e-01  1.0434748614292003e-01  1.0571285915842964e-01  1.0709609789874387e-01 
 1.0849743613450208e-01  1.0991711069520135e-01  1.1135536150922154e-01  1.1281243164437327e-01 
 1.1428856734897744e-01  1.1578401809348141e-01  1.1729903661262034e-01  1.1883387894812987e-01 
 1.2038880449201796e-01  1.2196407603040200e-01  1.2355995978792148e-01  1.2517672547272979e-01 
 1.2681464632207567e-01  1.2847399914848115e-01  1.3015506438652324e-01  1.3185812614022832e-01 
 1.3358347223108616e-01  1.3533139424669266e-01  1.3710218759002865e-01  1.3889615152938384e-01 
 1.4071358924893376e-01  1.4255480789997871e-01  1.4442011865285301e-01  1.4630983674951345e-01 
 1.4822428155681616e-01  1.5016377662049010e-01  1.5212864971981749e-01  1.5411923292302815e-01 
 1.5613586264342150e-01  1.5817887969622002e-01  1.6024862935616824e-01  1.6234546141588493e-01 
 1.6446973024497877e-01  1.6662179484993789e-01  1.6880201893480259e-01  1.7101077096263254e-01 
 1.7324842421777725e-01  1.7551535686896280e-01  1.7781195203320274e-01  1.8013859784054589e-01 
 1.8249568749967143e-01  1.8488361936434181e-01  1.8730279700072563e-01  1.8975362925560138e-01 
 1.9223653032545365e-01  1.9475191982647211e-01  1.9730022286546967e-01  1.9988187011172509e-01 
 2.0249729786976767e-01  2.0514694815311324e-01  2.0783126875896643e-01  2.1055071334389830e-01 
 2.1330574150051637e-01  2.1609681883513635e-01  2.1892441704647081e-01  2.2178901400534740e-01 
 2.2469109383547020e-01  2.2763114699523776e-01  2.3060967036063165e-01  2.3362716730918978e-01 
 2.3668414780507846e-01  2.3978112848527730e-01  2.4291863274689290e-01  2.4609719083561221e-01 
 2.4931733993531785e-01  2.5257962425887182e-01  2.5588459514008960e-01  2.5923281112691610e-01 
 2.6262483807582232e-01  2.6606124924743574e-01  2.6954262540342350e-01  2.7306955490464202e-01 
 2.7664263381057136e-01  2.8026246598005095e-01  2.8392966317333285e-01  2.8764484515547128e-01 
 2.9140863980106335e-01  2.9522168320036263e-01  2.9908461976677903e-01  3.0299810234578622e-01 
 3.0696279232525525e-01  3.1097935974722779e-01  3.1504848342115860e-01  3.1917085103863346e-01 
 3.2334715928959140e-01  3.2757811398006675e-01  3.3186443015147227e-01  3.3620683220144287e-01 
 3.4060605400626037e-01  3.4506283904488033e-01  3.4957794052458163e-01  3.5415212150826103e-01 
 3.5878615504339162e-01  3.6348082429267026e-01  3.6823692266637398e-01  3.7305525395644767e-01 
 3.7793663247234771e-01  3.8288188317866129e-01  3.8789184183452868e-01  3.9296735513488551e-01 
 3.9810928085356051e-01  4.0331848798823827e-01  4.0859585690732314e-01  4.1394227949872298e-01 
 4.1935865932058070e-01  4.2484591175397790e-01  4.3040496415763585e-01  4.3603675602464181e-01 
 4.4174223914122573e-01  4.4752237774761372e-01  4.5337814870098758e-01  4.5931054164057589e-01 
 4.6532055915490483e-01  4.7140921695123894e-01  4.7757754402723734e-01  4.8382658284485713e-01 
 4.9015738950653254e-01  4.9657103393365587e-01  5.0306860004740095e-01  5.0965118595190606e-01 
 5.1631990411985618e-01  5.2307588158049378e-01  5.2992026011008975e-01  5.3685419642490584e-01 
 5.4387886237668259e-01  5.5099544515068533e-01  5.5820514746634098e-01  5.6550918778050074e-01 
 5.7290880049336190e-01  5.8040523615708473e-01  5.8799976168713886e-01  5.9569366057641449e-01 
 6.0348823311213606e-01  6.1138479659561384e-01  6.1938468556487236e-01  6.2748925202018579e-01 
 6.3569986565257575e-01  6.4401791407528808e-01  6.5244480305830410e-01  6.6098195676591887e-01 
 6.6963081799742785e-01  6.7839284843096459e-01  6.8726952887052695e-01  6.9626235949623627e-01 
 7.0537286011787226e-01  7.1460257043172359e-01  7.2395305028080126e-01  7.3342587991845487e-01 
 7.4302266027543906e-01  7.5274501323047549e-01  7.6259458188435392e-01  7.7257303083761986e-01 
 7.8268204647189743e-01  7.9292333723488595e-01  8.0329863392910161e-01  8.1380969000437953e-01 
 8.2445828185421444e-01  8.3524620911597269e-01  8.4617529497503863e-01  8.5724738647293430e-01 
 8.6846435481947570e-01  8.7982809570901044e-01  8.9134052964079646e-01  9.0300360224356813e-01 
 9.1481928460435513e-01  9.2678957360159853e-01  9.3891649224262930e-01  9.5120209000556133e-01 
 9.6364844318565712e-01  9.7625765524622810e-01  9.8903185717412501e-01  1.0019732078398740e+00 
 1.0150838943625409e+00  1.0283661324793534e+00  1.0418221669201655e+00  1.0554542717868247e+00 
 1.0692647509374991e+00  1.0832559383760356e+00  1.0974301986464117e+00  1.1117899272323488e+00 
 1.1263375509621558e+00  1.1410755284188676e+00  1.1560063503557527e+00  1.1711325401172548e+00 
 1.1864566540654453e+00  1.2019812820120546e+00  1.2177090476561554e+00  1.2336426090275758e+00 
 1.2497846589361123e+00  1.2661379254266159e+00  1.2827051722400469e+00  1.2994891992805488e+00 
 1.3164928430886396e+00  1.3337189773205922e+00  1.3511705132340921e+00  1.3688504001802455e+00 
 1.3867616261020255e+00  1.4049072180392437e+00  1.4232902426401255e+00  1.4419138066795820e+00 
 1.4607810575842615e+00  1.4798951839644734e+00  1.4992594161530683e+00  1.5188770267513763e+00 
 1.5387513311822794e+00  1.5588856882505291e+00  1.5792835007103947e+00  1.5999482158407250e+00 
 1.6208833260275644e+00  1.6420923693543608e+00  1.6635789301999173e+00  1.6853466398441561e+00 
 1.7073991770818167e+00  1.7297402688441794e+00  1.7523736908289265e+00  1.7753032681382415e+00 
 1.7985328759252659e+00  1.8220664400490041e+00  1.8459079377378049e+00  1.8700613982615231e+00 
 1.8945309036124738e+00  1.9193205891953022e+00  1.9444346445258729e+00  1.9698773139393118e+00 
 1.9956528973073080e+00  2.0217657507647928e+00  2.0482202874461550e+00  2.0750209782310578e+00 
 2.1021723525000326e+00  2.1296789988999532e+00  2.1575455661195306e+00  2.1857767636749483e+00 
 2.2143773627057879e+00  2.2433521967813568e+00  2.2727061627175775e+00  2.3024442214045573e+00 
 2.3325713986449945e+00  2.3630927860035484e+00  2.3940135416673272e+00  2.4253388913176308e+00 
 2.4570741290131082e+00  2.4892246180844633e+00  2.5217957920408742e+00  2.5547931554882535e+00 
 2.5882222850595653e+00  2.6220888303572720e+00  2.6563985149081333e+00  2.6911571371304999e+00 
 2.7263705713142561e+00  2.7620447686135905e+00  2.7981857580527527e+00  2.8347996475449806e+00 
 2.8718926249247403e+00  2.9094709589934937e+00  2.9475410005791400e+00  2.9861091836093165e+00 
 3.0251820261987530e+00  3.0647661317508423e+00  3.1048681900736366e+00  3.1454949785104405e+00 
 3.1866533630852012e+00  3.2283502996628606e+00  3.2705928351249485e+00  3.3133881085605008e+00 
 3.3567433524725825e+00  3.4006658940006083e+00  3.4451631561586322e+00  3.4902426590898692e+00 
 3.5359120213376074e+00  3.5821789611327643e+00  3.6290512976982847e+00  3.6765369525706104e+00 
 3.7246439509384328e+00  3.7733804229989771e+00  3.8227546053320194e+00  3.8727748422918875e+00 
 3.9234495874176827e+00  3.9747874048619405e+00  4.0267969708380065e+00  4.0794870750863019e+00 
 4.1328666223598614e+00  4.1869446339292233e+00  4.2417302491070510e+00  4.2972327267927053e+00 
 4.3534614470370201e+00  4.4104259126275416e+00  4.4681357506945378e+00  4.5266007143379969e+00 
 4.5858306842759262e+00  4.6458356705142183e+00  4.7066258140383663e+00  4.7682113885273134e+00 
 4.8306028020897234e+00  4.8938105990229896e+00  4.9578454615952330e+00  5.0227182118506377e+00 
 5.0884398134384101e+00  5.1550213734656234e+00  5.2224741443744023e+00  5.2908095258435726e+00 
 5.3600390667152498e+00  5.4301744669466148e+00  5.5012275795872325e+00  5.5732104127822550e+00 
 5.6461351318018167e+00  5.7200140610970029e+00  5.7948596863826989e+00  5.8706846567477209e+00 
 5.9475017867925315e+00  6.0253240587949399e+00  6.1041646249041372e+00  6.1840368093634464e+00 
 6.2649541107621447e+00  6.3469302043167577e+00  6.4299789441822188e+00  6.5141143657932101e+00 
 6.5993506882362398e+00  6.6857023166526748e+00  6.7731838446732437e+00  6.8618100568843960e+00 
 6.9515959313269304e+00  7.0425566420273320e+00  7.1347075615622026e+00  7.2280642636562700e+00 
 7.3226425258143877e+00  7.4184583319879680e+00  7.5155278752762991e+00  7.6138675606632367e+00 
 7.7134940077896683e+00  7.8144240537622780e+00  7.9166747559990567e+00  8.0202633951120550e+00 
 8.1252074778278427e+00  8.2315247399461491e+00  8.3392331493373320e+00  8.4483509089789326e+00 
 8.5588964600320452e+00  8.6708884849579047e+00  8.7843459106752739e+00  8.8992879117591404e+00 
 9.0157339136812595e+00  9.1337035960931132e+00  9.2532168961518018e+00  9.3742940118894911e+00 
 9.4969554056269168e+00  9.6212218074315690e+00  9.7471142186211122e+00  9.8746539153126776e+00 
 1.0003862452018563e+01  1.0134761665289000e+01  1.0267373677402604e+01  1.0401720900105014e+01 
 1.0537826038396640e+01  1.0675712094369802e+01  1.0815402371096141e+01  1.0956920476564898e+01 
 1.1100290327672724e+01  1.1245536154265693e+01  1.1392682503234198e+01  1.1541754242661433e+01 
 1.1692776566026172e+01  1.1845774996460509e+01  1.2000775391063337e+01  1.2157803945270263e+01 
 1.2316887197280687e+01  1.2478052032542834e+01  1.2641325688297453e+01  1.2806735758180972e+01 
 1.2974310196888920e+01  1.3144077324900227e+01  1.3316065833263623e+01  1.3490304788446359e+01 
 1.3666823637246578e+01  1.3845652211769851e+01  1.4026820734470906e+01  1.4210359823261278e+01 
 1.4396300496683811e+01  1.4584674179154874e+01  1.4775512706275149e+01  1.4968848330209935e+01 
 1.5164713725139825e+01  1.5363141992782756e+01  1.5564166667988232e+01  1.5767821724404817e+01 
 1.5974141580221772e+01  1.6183161103985810e+01  1.6394915620493887e+01  1.6609440916763315e+01 
 1.6826773248079750e+01  1.7046949344124453e+01  1.7270006415181705e+01  1.7495982158427410e+01 
 1.7724914764300021e+01  1.7956842922954806e+01  1.8191805830802593e+01  1.8429843197134048e+01 
 1.8670995250830625e+01  1.8915302747163366e+01  1.9162806974680635e+01  1.9413549762185959e+01 
 1.9667573485807210e+01  1.9924921076158295e+01  2.0185636025594491e+01  2.0449762395562818e+01 
 2.0717344824048368e+01  2.0988428533118469e+01  2.1263059336565149e+01  2.1541283647647855e+01 
 2.1823148486937352e+01  2.2108701490262352e+01  2.2397990916760040e+01  2.2691065657032055e+01 
 2.2987975241407035e+01  2.3288769848311421e+01  2.3593500312749697e+01  2.3902218134895641e+01 
 2.4214975488795975e+01  2.4531825231187895e+01  2.4852820910432001e+01  2.5178016775562099e+01 
 2.5507467785453375e+01  2.5841229618110681e+01  2.6179358680078028e+01  2.6521912115971720e+01 
 2.6868947818137713e+01  2.7220524436435682e+01  2.7576701388150887e+01  2.7937538868035904e+01 
 2.8303097858483657e+01  2.8673440139833609e+01  2.9048628300812755e+01  2.9428725749113298e+01 
 2.9813796722108641e+01  3.0203906297709739e+01  3.0599120405363365e+01  3.0999505837194384e+01 
 3.1405130259293696e+01  3.1816062223154077e+01  3.2232371177255480e+01  3.2654127478802060e+01 
 3.3081402405612479e+01  3.3514268168166389e+01  3.3952797921807921e+01  3.4397065779109170e+01 
 3.4847146822395437e+01  3.5303117116434279e+01  3.5765053721290627e+01  3.6233034705350164e+01 
 3.6707139158513030e+01  3.7187447205560218e+01  3.7674040019694871e+01  3.8166999836260729e+01 
 3.8666409966640053e+01  3.9172354812333538e+01  3.9684919879224303e+01  4.0204191792028602e+01 
 4.0730258308935618e+01  4.1263208336438872e+01  4.1803131944361347e+01  4.2350120381077915e+01 
 4.2904266088936254e+01  4.3465662719879944e+01  4.4034405151275770e+01  4.4610589501948304e+01 
 4.5194313148424193e+01  4.5785674741388995e+01  4.6384774222359425e+01  4.6991712840573690e+01 
 4.7606593170102840e+01  4.8229519127186016e+01  4.8860595987792628e+01  4.9499930405414105e+01 
 5.0147630429088736e+01  5.0803805521662085e+01  5.1468566578286570e+01  5.2142025945163041e+01 
 5.2824297438527225e+01  5.3515496363885447e+01  5.4215739535501235e+01  5.4925145296137217e+01 
 5.5643833537055414e+01  5.6371925718279087e+01  5.7109544889119775e+01  5.7856815708972974e+01 